formula,numberOfSpecies,fracActinoid,fracAlkali,fracAlkaline,fracChalcogen,fracHalogen,fracLanthanoid,fracMetalloid,fracNobleGas,fracRareEarth,fracTransitionMetal,electronsPerAtom,electronegativityRange,electronegativityStd,radiiRange,radiiStd,rowRange,rowStd,ordered,crystalSystem,pointGroup,spaceGroupNumber,volumePerSite,density,c_a
Li6 Sn6,2,0.0,0.5,0.0,0.0,0.0,0.0,0.0,0.0,0.0,0.0,-1.5,0.98,0.49,0.0,0.0,3.0,1.5,True,tetragonal,4/mmm,141,21.4654,4.8601,0.3314
Au4 Ga4 Sr2,3,0.0,0.0,0.2,0.0,0.0,0.0,0.0,0.0,0.0,0.4,2.8,1.59,0.5888,0.7,0.2709,2.0,0.8944,True,tetragonal,4/mmm,129,22.2236,9.2802,0.4248
Dy1 Ge6 Mn6,3,0.0,0.0,0.0,0.0,0.0,0.0769,0.4615,0.0,0.0769,0.4615,-0.6923,0.79,0.2666,0.5,0.1342,4.0,1.0659,True,hexagonal,6/mmm,191,14.541,8.1517,0.6359
K4 O6 Ti2,3,0.0,0.3333,0.0,0.5,0.0,0.0,0.0,0.0,0.0,0.1667,-0.0,2.62,1.214,1.6,0.718,2.0,1.0,True,orthorhombic,mmm,63,16.4775,2.9235,0.8902
Ba4 O16 U4,3,0.1667,0.0,0.1667,0.6667,0.0,0.0,0.0,0.0,0.1667,0.0,0.0,2.55,1.0958,1.55,0.6468,7.0,2.7335,True,orthorhombic,mmm,57,16.7038,7.2794,0.7093
Sb4 Sn2 Zn2,3,0.0,0.0,0.0,0.0,0.0,0.0,0.5,0.0,0.0,0.25,-2.0,0.4,0.1644,0.1,0.0433,1.0,0.433,True,tetragonal,-42m,122,32.7582,5.4193,0.8145
Ba6 N2 Na2,3,0.0,0.2,0.6,0.0,0.0,0.0,0.0,0.0,0.0,0.0,0.8,2.15,0.8561,1.5,0.581,4.0,1.7436,True,hexagonal,6/mmm,194,44.0352,3.3861,1.2165
Li2 Ni8 O24 P6,4,0.0,0.05,0.0,0.6,0.0,0.0,0.0,0.0,0.0,0.2,-1.2,2.46,0.7906,0.85,0.33,2.0,0.8047,True,tetragonal,-42m,122,10.1157,4.3224,0.6381
Fe2 Nd2 Si2,3,0.0,0.0,0.0,0.0,0.0,0.3333,0.3333,0.0,0.3333,0.3333,0.3333,0.76,0.343,0.75,0.3082,5.0,2.1602,True,tetragonal,4/mmm,129,19.2635,6.5562,0.5808
Ag6 As2 Se6,3,0.0,0.0,0.0,0.4286,0.0,0.0,0.1429,0.0,0.0,0.4286,-0.8571,0.62,0.2878,0.45,0.2227,1.0,0.4949,True,trigonal,3m,161,25.2091,5.9792,1.0
Al12 Ca8 H4 O52 Si12,5,0.0,0.0,0.0909,0.5909,0.0,0.0,0.1364,0.0,0.0,0.0,-1.1818,2.44,0.9203,1.55,0.407,3.0,0.7173,True,orthorhombic,mmm,62,10.5551,3.2491,0.3424
B6 Eu1,2,0.0,0.0,0.0,0.0,0.0,0.1429,0.8571,0.0,0.1429,0.0,2.8571,2.04,0.7139,1.0,0.3499,6.0,2.0996,True,cubic,m-3m,221,10.2602,5.0132,1.0
Mg2 O10 V4,3,0.0,0.0,0.125,0.625,0.0,0.0,0.0,0.0,0.0,0.25,0.25,2.13,0.9325,0.9,0.3897,2.0,0.857,True,orthorhombic,mmm,63,13.2903,3.2202,0.3326
Br4 Cs4 I8,3,0.0,0.25,0.0,0.0,0.75,0.0,0.0,0.0,0.0,0.0,-0.5,2.17,0.8618,1.45,0.565,2.0,0.7071,True,orthorhombic,mmm,62,48.3811,4.0038,0.6278
K10 Te6,2,0.0,0.625,0.0,0.375,0.0,0.0,0.375,0.0,0.0,0.0,-0.125,1.28,0.6197,0.8,0.3873,1.0,0.4841,True,tetragonal,4/m,87,39.0903,3.0707,0.63
Cu4 Ge2 O8,3,0.0,0.0,0.0,0.5714,0.0,0.0,0.1429,0.0,0.0,0.2857,-1.1429,1.54,0.7447,0.75,0.356,2.0,0.9897,True,tetragonal,4/mmm,141,11.6783,5.3571,0.8539
Br2 Dy2 S2,3,0.0,0.0,0.0,0.0,0.3333,0.3333,0.0,0.0,0.3333,0.0,0.0,1.74,0.747,0.75,0.324,5.0,2.1602,True,orthorhombic,mmm,59,33.2188,4.5734,0.4476
In2 Ni4,2,0.0,0.0,0.0,0.0,0.0,0.0,0.0,0.0,0.0,0.6667,2.3333,0.13,0.0613,0.2,0.0943,1.0,0.4714,True,hexagonal,6/mmm,194,14.032,9.1597,0.8232
Al2 Cu2 O4,3,0.0,0.0,0.0,0.5,0.0,0.0,0.0,0.0,0.0,0.25,0.25,1.83,0.8487,0.75,0.3518,2.0,0.8292,True,hexagonal,6/mmm,194,10.2114,4.9812,0.2524
Ni1,1,0.0,0.0,0.0,0.0,0.0,0.0,0.0,0.0,0.0,1.0,2.0,0.0,0.0,0.0,0.0,0.0,0.0,True,cubic,m-3m,225,10.7928,9.0304,1.0
Ag1 Hf2,2,0.0,0.0,0.0,0.0,0.0,0.0,0.0,0.0,0.0,1.0,3.0,0.63,0.297,0.05,0.0236,1.0,0.4714,True,tetragonal,4/mmm,139,20.8256,12.355,0.4998
Au2 Li2 Sn2,3,0.0,0.3333,0.0,0.0,0.0,0.0,0.0,0.0,0.0,0.3333,0.0,1.56,0.6438,0.1,0.0471,4.0,1.6997,True,hexagonal,6/mmm,194,20.01,8.9242,0.7748
C19 Er10 Ru10,3,0.0,0.0,0.0,0.0,0.0,0.2564,0.0,0.0,0.2564,0.2564,-0.4103,1.31,0.5388,1.05,0.4427,6.0,2.4926,True,monoclinic,m,8,12.7043,9.7577,0.7218
Cd2 Ce4 Pt4,3,0.0,0.0,0.0,0.0,0.0,0.4,0.0,0.0,0.4,0.6,2.4,1.16,0.5188,0.5,0.2245,3.0,1.2,True,tetragonal,4/mmm,127,23.2735,11.1705,0.4775
Li2 N8 Re2 Sr4,4,0.0,0.125,0.25,0.0,0.0,0.0,0.0,0.0,0.0,0.125,-0.375,2.09,0.9664,1.35,0.5668,4.0,1.6394,True,monoclinic,2/m,11,15.2662,5.7706,0.8515
Ca2 H4,2,0.0,0.0,0.3333,0.0,0.0,0.0,0.0,0.0,0.0,0.0,0.0,1.2,0.5657,1.55,0.7307,3.0,1.4142,True,hexagonal,6/mmm,194,11.2166,2.0772,0.7146
C1 Rh3 Y1,3,0.0,0.0,0.0,0.0,0.0,0.0,0.0,0.0,0.0,0.8,1.6,1.33,0.463,1.1,0.3513,3.0,1.2,True,cubic,m-3m,221,14.7159,9.2446,1.0
Mg4 O12 Si4,3,0.0,0.0,0.2,0.6,0.0,0.0,0.2,0.0,0.0,0.0,-1.6,2.13,0.9181,0.9,0.3655,1.0,0.4899,True,monoclinic,2/m,15,10.5056,3.1735,0.7744
La4 O16 P4,3,0.0,0.0,0.0,0.6667,0.0,0.1667,0.0,0.0,0.1667,0.1667,-1.3333,2.34,0.9028,1.35,0.4953,6.0,2.1922,True,monoclinic,2/m,14,13.1399,4.926,0.9152
F7 Na3 U1,3,0.0909,0.2727,0.0,0.0,0.6364,0.0,0.0,0.0,0.0909,0.0,0.1818,3.05,1.4179,1.3,0.6195,7.0,1.9751,True,monoclinic,m,8,15.5573,4.2694,0.8503
Cl28 Fe2 Zr12,3,0.0,0.0,0.0,0.0,0.6667,0.0,0.0,0.0,0.0,0.3333,0.5714,1.83,0.8351,0.55,0.251,2.0,0.8985,True,orthorhombic,mmm,64,27.7267,3.1357,0.8221
Ho4 Rh4 Zn4,3,0.0,0.0,0.0,0.0,0.0,0.3333,0.0,0.0,0.3333,0.6667,2.6667,1.05,0.4315,0.4,0.1886,4.0,1.6997,True,orthorhombic,mmm,62,18.9061,9.7564,0.4968
Er1 Se1,2,0.0,0.0,0.0,0.5,0.0,0.5,0.0,0.0,0.5,0.0,0.5,1.31,0.655,0.6,0.3,4.0,2.0,True,cubic,m-3m,225,23.2571,8.7899,1.0
O12 Pb6 S2,3,0.0,0.0,0.0,0.6,0.0,0.0,0.0,0.0,0.0,0.0,-0.8,1.11,0.5177,1.2,0.5367,4.0,1.7916,True,orthorhombic,mmm,63,19.3527,6.4324,0.7489
Na4 Ni2 O4,3,0.0,0.4,0.0,0.4,0.0,0.0,0.0,0.0,0.0,0.2,0.0,2.51,1.1279,1.2,0.54,2.0,0.7483,True,orthorhombic,mm2,36,12.1506,3.7356,0.3452
Li2 O24 P6 Ti4,4,0.0,0.0556,0.0,0.6667,0.0,0.0,0.0,0.0,0.0,0.1111,-1.3333,2.46,0.8297,0.85,0.3111,2.0,0.6781,True,trigonal,-3m,167,12.569,2.8448,1.0
Na2 O16 S4 Tm2,4,0.0,0.0833,0.0,0.6667,0.0,0.0833,0.0,0.0,0.0833,0.0,-1.3333,2.51,0.8728,1.2,0.4336,6.0,1.6394,True,monoclinic,2/m,11,13.3382,3.9844,0.4809
Cl6 N2 Pr4,3,0.0,0.0,0.0,0.0,0.5,0.3333,0.0,0.0,0.3333,0.0,0.0,2.03,0.9438,1.2,0.4589,6.0,2.5,True,triclinic,-1,2,24.5248,4.5385,0.7483
Au12 Rb8 S10,3,0.0,0.2667,0.0,0.0,0.0,0.0,0.0,0.0,0.0,0.4,0.8,1.76,0.7688,1.35,0.5339,3.0,1.2893,True,hexagonal,-6m2,190,30.8513,6.0426,0.9921
F4 I4 O8,3,0.0,0.0,0.0,0.5,0.5,0.0,0.0,0.0,0.0,0.0,-1.5,1.32,0.4705,0.9,0.3631,3.0,1.299,True,orthorhombic,222,19,16.1922,4.561,0.7065
F10 K1 Y3,3,0.0,0.0714,0.0,0.0,0.7143,0.0,0.0,0.0,0.0,0.2143,-0.0,3.16,1.2953,1.7,0.6392,3.0,1.2637,True,trigonal,3m,160,16.5087,3.5622,1.0
Cu2 Fe4 O8,3,0.0,0.0,0.0,0.5714,0.0,0.0,0.0,0.0,0.0,0.4286,-0.2857,1.61,0.7855,0.8,0.388,2.0,0.9897,True,orthorhombic,mmm,74,11.0749,5.1243,1.0481
Ge4 Na8 S12,3,0.0,0.3333,0.0,0.0,0.0,0.0,0.1667,0.0,0.0,0.0,-1.3333,1.65,0.7387,0.8,0.3587,1.0,0.3727,True,monoclinic,2/m,14,24.372,2.4393,0.3761
Li12 O48 P12 Sn8,4,0.0,0.15,0.0,0.6,0.0,0.0,0.0,0.0,0.0,0.0,-1.9,2.46,0.93,0.85,0.3611,3.0,0.9206,True,monoclinic,2/m,14,12.8534,3.5085,0.9847
Ru1 Ti1,2,0.0,0.0,0.0,0.0,0.0,0.0,0.0,0.0,0.0,1.0,3.5,0.66,0.33,0.1,0.05,1.0,0.5,True,cubic,m-3m,221,14.6872,8.4194,1.0
C4 N8 Zn4,3,0.0,0.0,0.0,0.0,0.0,0.0,0.0,0.0,0.0,0.25,-2.0,1.39,0.5676,0.7,0.2966,2.0,0.866,True,tetragonal,-42m,122,13.7133,3.1917,0.7834
K3 Na1 O8 S2,4,0.0,0.2857,0.0,0.5714,0.0,0.0,0.0,0.0,0.0,0.0,-1.1429,2.62,1.1317,1.6,0.6621,2.0,0.8113,True,trigonal,-3m,164,15.2409,2.5869,0.7778
Pb3 Pr1,2,0.0,0.0,0.0,0.0,0.0,0.25,0.0,0.0,0.25,0.0,2.25,1.2,0.5196,0.05,0.0217,2.0,0.866,True,cubic,m-3m,221,30.5347,10.3667,1.0
Cs1 In5 S8,3,0.0,0.0714,0.0,0.0,0.0,0.0,0.0,0.0,0.0,0.0,0.0,1.79,0.5352,1.6,0.4409,3.0,1.0996,True,monoclinic,2/m,12,25.1839,4.5379,0.3984
La20 Si16,2,0.0,0.0,0.0,0.0,0.0,0.5556,0.4444,0.0,0.5556,0.5556,-0.1111,0.8,0.3975,0.85,0.4224,5.0,2.4845,True,tetragonal,422,92,27.9472,5.3269,0.5174
Cd2 O8 S2,3,0.0,0.0,0.0,0.6667,0.0,0.0,0.0,0.0,0.0,0.1667,-1.3333,1.75,0.6667,0.95,0.3556,3.0,1.1055,True,orthorhombic,mmm,63,13.8365,4.1699,0.6834
O8 Se2 Te2,3,0.0,0.0,0.0,1.0,0.0,0.0,0.1667,0.0,0.0,0.0,-2.0,1.34,0.5414,0.8,0.3263,3.0,1.2134,True,triclinic,1,1,16.5932,4.5126,0.5871
Al6 Co2 Lu4,3,0.0,0.0,0.0,0.0,0.0,0.3333,0.0,0.0,0.3333,0.1667,2.8333,0.61,0.2145,0.5,0.2267,3.0,1.3437,True,hexagonal,6/mmm,194,17.9897,7.5353,0.6407
Ge4 Ni4 Sc4,3,0.0,0.0,0.0,0.0,0.0,0.0,0.3333,0.0,0.0,0.6667,0.3333,0.65,0.2858,0.35,0.1472,0.0,0.0,True,orthorhombic,mmm,62,15.6877,6.2201,0.578
Co4 Li16 O32 P8,4,0.0,0.2667,0.0,0.5333,0.0,0.0,0.0,0.0,0.0,0.0667,-1.0667,2.46,1.061,0.85,0.3776,2.0,0.5735,True,monoclinic,2/m,14,11.362,2.6954,0.9952
Lu2 Pr2 Se6,3,0.0,0.0,0.0,0.6,0.0,0.4,0.0,0.0,0.4,0.0,0.0,1.42,0.6628,0.7,0.32,4.0,1.6,True,orthorhombic,mmm,63,26.619,6.8964,0.4052
Cl16 Pt2 S4,3,0.0,0.0,0.0,0.0,0.7273,0.0,0.0,0.0,0.0,0.0909,-0.9091,0.88,0.3117,0.35,0.1006,3.0,0.8624,True,monoclinic,2/m,14,29.5492,2.7732,0.5186
F16 K4 Sm4,3,0.0,0.1667,0.0,0.0,0.6667,0.1667,0.0,0.0,0.1667,0.0,0.0,3.16,1.4108,1.7,0.726,6.0,2.2111,True,orthorhombic,mmm,62,15.2064,4.8312,0.2366
Ca2 I1 P1,3,0.0,0.0,0.5,0.0,0.25,0.0,0.0,0.0,0.0,0.0,0.0,1.66,0.7316,0.8,0.3317,2.0,0.7071,True,trigonal,-3m,166,30.121,3.2806,1.0
Zn44 Zr2,2,0.0,0.0,0.0,0.0,0.0,0.0,0.0,0.0,0.0,1.0,2.087,0.32,0.0653,0.2,0.0408,1.0,0.2039,True,cubic,m-3m,227,15.441,7.1549,1.0
Ni6 Te4,2,0.0,0.0,0.0,0.4,0.0,0.0,0.4,0.0,0.0,0.6,0.4,0.19,0.0931,0.05,0.0245,1.0,0.4899,True,monoclinic,2/m,11,17.4893,8.1897,0.5047
Li1 Mo1 O2,3,0.0,0.25,0.0,0.5,0.0,0.0,0.0,0.0,0.0,0.25,0.25,2.46,1.0239,0.85,0.425,3.0,1.299,True,trigonal,-3m,166,11.0262,5.0782,1.0
In1 N1 Sc3,3,0.0,0.0,0.0,0.0,0.0,0.0,0.0,0.0,0.0,0.6,1.8,1.68,0.6507,0.95,0.3755,3.0,0.9798,True,cubic,m-3m,221,17.9182,4.8875,1.0
H16 I4 Mg2 O20,4,0.0,0.0,0.0476,0.4762,0.0952,0.0,0.0,0.0,0.0,0.0,-1.3333,2.13,0.6631,1.25,0.3821,4.0,1.1329,True,monoclinic,2/m,14,11.3142,3.1182,0.7849
Gd2 O8 V2,3,0.0,0.0,0.0,0.6667,0.0,0.1667,0.0,0.0,0.1667,0.1667,0.0,2.24,0.9626,1.2,0.4776,6.0,2.2111,True,tetragonal,4/mmm,141,14.2362,5.2915,1.0
Mg1 Se1,2,0.0,0.0,0.5,0.5,0.0,0.0,0.0,0.0,0.0,0.0,0.0,1.24,0.62,0.35,0.175,1.0,0.5,True,cubic,m-3m,225,20.9211,4.0981,1.0
O16 Pb4 S4,3,0.0,0.0,0.0,0.6667,0.0,0.0,0.0,0.0,0.0,0.0,-1.3333,1.11,0.4699,1.2,0.4422,4.0,1.4625,True,orthorhombic,mmm,62,13.9139,6.0321,0.6495
Al2 Pr1 Si2,3,0.0,0.0,0.0,0.0,0.0,0.2,0.4,0.0,0.2,0.0,0.2,0.77,0.2816,0.75,0.2782,5.0,2.0,True,trigonal,-3m,164,21.4345,3.8897,0.6181
P8 Pr8 S32,3,0.0,0.0,0.0,0.0,0.0,0.1667,0.0,0.0,0.1667,0.0,-1.3333,1.45,0.5308,0.85,0.3168,5.0,1.8634,True,tetragonal,4/mmm,142,25.0535,3.3155,0.8861
Cu4 Si4 Ti4,3,0.0,0.0,0.0,0.0,0.0,0.0,0.3333,0.0,0.0,0.6667,0.6667,0.36,0.1697,0.3,0.1312,1.0,0.4714,True,orthorhombic,mmm,62,13.8433,5.5777,0.5193
Cu4 Nb4 O12,3,0.0,0.0,0.0,0.6,0.0,0.0,0.0,0.0,0.0,0.4,0.2,1.84,0.8333,0.85,0.3932,3.0,1.2649,True,monoclinic,2/m,12,14.5977,4.6514,0.9513
Ag4 K4 O4,3,0.0,0.3333,0.0,0.3333,0.0,0.0,0.0,0.0,0.0,0.3333,0.0,2.62,1.0738,1.6,0.66,3.0,1.2472,True,tetragonal,4/mmm,139,23.274,3.8757,0.7285
Ba1 Cu3 O4,3,0.0,0.0,0.125,0.5,0.0,0.0,0.0,0.0,0.0,0.375,0.0,2.55,0.9481,1.55,0.5344,4.0,1.3919,True,orthorhombic,mmm,65,15.5554,5.2302,0.6504
B14 Dy6 Mn2,3,0.0,0.0,0.0,0.0,0.0,0.2727,0.6364,0.0,0.2727,0.0909,2.9091,0.82,0.3651,0.9,0.4014,6.0,2.6222,True,orthorhombic,mmm,63,11.4586,8.1432,0.3701
Ba2 S4,2,0.0,0.0,0.3333,0.0,0.0,0.0,0.0,0.0,0.0,0.0,-0.6667,1.69,0.7967,1.15,0.5421,3.0,1.4142,True,monoclinic,2/m,15,30.3622,3.6726,0.5738
Ag2 O2,2,0.0,0.0,0.0,0.5,0.0,0.0,0.0,0.0,0.0,0.5,-0.5,1.51,0.755,1.0,0.5,3.0,1.5,True,monoclinic,2/m,15,15.1559,6.7857,0.5866
B6 O12 Se1 Zn4,4,0.0,0.0,0.0,0.5652,0.0,0.0,0.2609,0.0,0.0,0.1739,0.0,1.79,0.7691,0.75,0.2812,2.0,0.8249,True,cubic,-43m,217,10.1434,4.2525,1.0
Ni2 Si2 Zr1,3,0.0,0.0,0.0,0.0,0.0,0.0,0.4,0.0,0.0,0.6,0.0,0.58,0.23,0.45,0.1715,2.0,0.7483,True,tetragonal,4/mmm,139,13.815,6.3652,0.6771
F12 K4 Si2,3,0.0,0.2222,0.0,0.0,0.6667,0.0,0.1111,0.0,0.0,0.0,-0.8889,3.16,1.3523,1.7,0.6962,2.0,0.8315,True,hexagonal,6mm,186,14.9378,2.7207,0.6095
Ag4 O8 S2,3,0.0,0.0,0.0,0.5714,0.0,0.0,0.0,0.0,0.0,0.2857,-1.1429,1.51,0.6707,1.0,0.4371,3.0,1.3093,True,orthorhombic,mmm,70,14.5363,5.0883,0.8304
H2 O16 Rb6 S4,4,0.0,0.2143,0.0,0.5714,0.0,0.0,0.0,0.0,0.0,0.0,-1.2857,2.62,1.0436,2.1,0.7226,4.0,1.2778,True,monoclinic,2/m,15,16.8065,3.1726,0.5819
Ge4 Pt4 Sr4,3,0.0,0.0,0.3333,0.0,0.0,0.0,0.3333,0.0,0.0,0.3333,0.0,1.33,0.574,0.75,0.3325,2.0,0.8165,True,cubic,23,198,24.9746,7.8755,1.0
C2 Pr1,2,0.0,0.0,0.0,0.0,0.0,0.3333,0.0,0.0,0.3333,0.0,-1.6667,1.42,0.6694,1.15,0.5421,6.0,2.8284,True,tetragonal,4/mmm,139,16.3733,5.5756,0.9103
Al8 F48 Na8 Sr8,4,0.0,0.1111,0.1111,0.0,0.6667,0.0,0.0,0.0,0.0,0.0,-0.0,3.05,1.3403,1.5,0.5871,3.0,0.9558,True,orthorhombic,mm2,33,13.313,3.4867,0.2903
Bi1 Tb1,2,0.0,0.0,0.0,0.0,0.0,0.5,0.0,0.0,0.5,0.0,3.0,2.02,1.01,0.15,0.075,2.0,1.0,True,cubic,m-3m,225,32.0608,9.5276,1.0
O8 Te4,2,0.0,0.0,0.0,1.0,0.0,0.0,0.3333,0.0,0.0,0.0,-2.0,1.34,0.6317,0.8,0.3771,3.0,1.4142,True,orthorhombic,222,19,16.7477,5.2748,0.5082
B2 Ir6 Sn5,3,0.0,0.0,0.0,0.0,0.0,0.0,0.1538,0.0,0.0,0.4615,0.3077,0.24,0.1115,0.6,0.2021,4.0,1.3587,True,hexagonal,-6m2,189,16.9767,13.3061,1.188
Ag8 O12 Ti4,3,0.0,0.0,0.0,0.5,0.0,0.0,0.0,0.0,0.0,0.5,-0.0,1.9,0.8302,1.0,0.4714,3.0,1.3744,True,monoclinic,2/m,15,13.9045,6.2021,0.5309
Er2 K2 O24 P8,4,0.0,0.0556,0.0,0.6667,0.0,0.0556,0.0,0.0,0.0556,0.0,-1.7778,2.62,0.8366,1.6,0.4391,6.0,1.4142,True,monoclinic,2,4,13.52,3.5635,0.873
In4 La4 O12,3,0.0,0.0,0.0,0.6,0.0,0.2,0.0,0.0,0.2,0.2,0.0,2.34,1.0031,1.35,0.5774,6.0,2.4,True,orthorhombic,mmm,62,14.4816,6.9194,0.691
As6 Ca2,2,0.0,0.0,0.25,0.0,0.0,0.0,0.75,0.0,0.0,0.0,-1.75,1.18,0.511,0.65,0.2815,0.0,0.0,True,triclinic,-1,2,23.7271,4.6337,0.9818
C2 Ge2 Mn6,3,0.0,0.0,0.0,0.0,0.0,0.0,0.2,0.0,0.0,0.6,-0.4,1.0,0.3963,0.7,0.2713,2.0,0.8,True,tetragonal,4/mmm,140,10.9754,7.5486,0.9771
In1 Tm1,2,0.0,0.0,0.0,0.0,0.0,0.5,0.0,0.0,0.5,0.0,3.0,0.53,0.265,0.2,0.1,3.0,1.5,True,cubic,m-3m,221,25.7949,9.1332,1.0
Cs2 Gd2 Hg2 Se6,4,0.0,0.1667,0.0,0.5,0.0,0.1667,0.0,0.0,0.1667,0.1667,-0.1667,1.76,0.7059,1.45,0.5239,4.0,1.4907,True,orthorhombic,mmm,63,33.2881,6.0495,0.386
Ni1 Sb1 Zn1,3,0.0,0.0,0.0,0.0,0.0,0.0,0.3333,0.0,0.0,0.6667,0.3333,0.4,0.1657,0.1,0.0471,1.0,0.4714,True,cubic,-43m,216,17.524,7.7658,1.0
Tm1,1,0.0,0.0,0.0,0.0,0.0,1.0,0.0,0.0,1.0,0.0,3.0,0.0,0.0,0.0,0.0,0.0,0.0,True,cubic,m-3m,225,30.0096,9.3477,1.0
Cu6 Mg4 Si2,3,0.0,0.0,0.3333,0.0,0.0,0.0,0.1667,0.0,0.0,0.5,1.0,0.59,0.2781,0.4,0.1336,1.0,0.5,True,hexagonal,6/mmm,194,14.3327,5.1621,0.6379
F10 H4 K4 O2 V2,5,0.0,0.1818,0.0,0.0909,0.4545,0.0,0.0,0.0,0.0,0.0909,-0.1818,3.16,1.254,1.95,0.6935,3.0,1.0679,True,monoclinic,2/m,15,14.3993,2.5386,0.7923
Ce4 O16 P4,3,0.0,0.0,0.0,0.6667,0.0,0.1667,0.0,0.0,0.1667,0.0,-1.3333,2.32,0.8964,1.25,0.4598,6.0,2.1922,True,monoclinic,2/m,14,12.8688,5.0558,0.9178
B28 I4 Mn12 O52,4,0.0,0.0,0.0,0.5417,0.0417,0.0,0.2917,0.0,0.0,0.125,0.0,1.89,0.7649,0.8,0.287,3.0,0.857,True,orthorhombic,mm2,29,10.1555,3.9201,0.7041
Dy1 Pt2 Si2,3,0.0,0.0,0.0,0.0,0.0,0.2,0.4,0.0,0.2,0.4,-0.2,1.06,0.3873,0.65,0.2379,5.0,1.9391,True,tetragonal,4/mmm,139,17.3583,11.6486,0.7293
In8 Na14 O64 P18,4,0.0,0.1346,0.0,0.6154,0.0,0.0,0.0,0.0,0.0,0.0,-1.3846,2.51,0.9303,1.2,0.4457,3.0,0.8427,True,tetragonal,-42m,114,13.5485,3.3255,0.463
Ge2 Na4 O8 Zn2,4,0.0,0.25,0.0,0.5,0.0,0.0,0.125,0.0,0.0,0.125,-1.0,2.51,1.0818,1.2,0.5074,2.0,0.8292,True,monoclinic,m,7,13.8756,3.7103,0.7537
O16 Sr4 Tm8,3,0.0,0.0,0.1429,0.5714,0.0,0.2857,0.0,0.0,0.2857,0.0,0.0,2.49,1.137,1.4,0.6152,6.0,2.6419,True,orthorhombic,mmm,62,14.3787,8.0756,0.2846
As1 I3 S24,3,0.0,0.0,0.0,0.0,0.1071,0.0,0.0357,0.0,0.0,0.0,-1.9286,0.48,0.0798,0.4,0.125,2.0,0.6339,True,trigonal,3m,160,35.5846,2.0419,1.0
B4 Ca8 F4 N8,4,0.0,0.0,0.3333,0.0,0.1667,0.0,0.1667,0.0,0.0,0.0,0.0,2.98,1.1068,1.3,0.5458,2.0,0.9428,True,orthorhombic,mmm,62,14.2066,2.6879,0.3667
Eu2 Tl4,2,0.0,0.0,0.0,0.0,0.0,0.3333,0.0,0.0,0.3333,0.0,1.3333,1.62,0.7637,0.05,0.0236,2.0,0.9428,True,hexagonal,6/mmm,194,31.319,9.91,0.6398
Al6 Na8 O28 S1 Si6,5,0.0,0.1633,0.0,0.5714,0.0,0.0,0.1224,0.0,0.0,0.0,-1.1429,2.51,1.0191,1.2,0.4492,1.0,0.4949,True,cubic,23,195,15.6849,2.1484,1.0
Cl8 Th2,2,0.2,0.0,0.0,0.0,0.8,0.0,0.0,0.0,0.2,0.0,0.0,1.86,0.744,0.8,0.32,6.0,2.4,True,tetragonal,4/mmm,141,28.2397,4.3966,1.0
Ru2 Si2 Sm1,3,0.0,0.0,0.0,0.0,0.0,0.2,0.4,0.0,0.2,0.4,0.2,1.03,0.3767,0.75,0.275,5.0,1.833,True,tetragonal,4/mmm,139,17.2247,7.8796,0.7384
As8 C8 F24,3,0.0,0.0,0.0,0.0,0.6,0.0,0.2,0.0,0.0,0.0,-2.0,1.8,0.7998,0.65,0.2522,2.0,0.8,True,tetragonal,4/mmm,137,18.6153,2.5678,0.6055
C6 Cu2 Fe1 N6,4,0.0,0.0,0.0,0.0,0.0,0.0,0.0,0.0,0.0,0.2,-2.4,1.21,0.428,0.75,0.2778,2.0,0.8,True,cubic,-43m,216,17.618,2.1304,1.0
Li2 O12 Si4 V2,4,0.0,0.1,0.0,0.6,0.0,0.0,0.2,0.0,0.0,0.1,-1.4,2.46,0.9311,0.85,0.333,2.0,0.6633,True,monoclinic,m,9,10.8744,3.2075,0.8211
K8 Se12 Te4,3,0.0,0.3333,0.0,0.6667,0.0,0.0,0.1667,0.0,0.0,0.0,-1.0,1.73,0.7789,1.05,0.4738,1.0,0.3727,True,monoclinic,2/m,14,37.8507,3.2368,0.5013
La2 O16 Rb2 W4,4,0.0,0.0833,0.0,0.6667,0.0,0.0833,0.0,0.0,0.0833,0.25,-0.3333,2.62,0.9331,1.75,0.5949,6.0,2.0999,True,monoclinic,2/m,12,15.3046,6.5104,0.9828
Br2 Cu2,2,0.0,0.0,0.0,0.0,0.5,0.0,0.0,0.0,0.0,0.5,0.5,1.06,0.53,0.2,0.1,0.0,0.0,True,hexagonal,6/mmm,194,24.4795,4.8654,0.6243
Cd2 Ir1 Na3 O6,4,0.0,0.25,0.0,0.5,0.0,0.0,0.0,0.0,0.0,0.25,-0.1667,2.51,1.0808,1.2,0.5348,4.0,1.3819,True,monoclinic,2/m,12,12.9899,6.1999,1.0065
F6 Na1 Rh1 Tl2,4,0.0,0.1,0.0,0.0,0.6,0.0,0.0,0.0,0.0,0.1,0.0,3.05,1.1985,1.4,0.6231,4.0,1.6613,True,cubic,m-3m,225,16.3065,6.6054,1.0
As4 Pt4 Y4,3,0.0,0.0,0.0,0.0,0.0,0.0,0.3333,0.0,0.0,0.6667,0.6667,1.06,0.4779,0.65,0.2718,2.0,0.8165,True,hexagonal,6/mmm,194,20.5629,9.6612,0.2804
As24 Ga16 Na16,3,0.0,0.2857,0.0,0.0,0.0,0.0,0.4286,0.0,0.0,0.0,-0.1429,1.25,0.5209,0.65,0.2737,1.0,0.4518,True,monoclinic,2/m,14,23.6335,4.1173,0.4663
Fe4 Li4 O28 P8,4,0.0,0.0909,0.0,0.6364,0.0,0.0,0.0,0.0,0.0,0.0909,-1.5455,2.46,0.8445,0.85,0.3215,2.0,0.6428,True,monoclinic,2/m,14,10.9399,3.2666,0.7845
Cl40 Co8 Cu8 H144 N48,5,0.0,0.0,0.0,0.0,0.1613,0.0,0.0,0.0,0.0,0.0645,-1.1935,1.28,0.4505,1.1,0.3567,3.0,0.9569,True,cubic,m-3m,228,11.1865,1.9246,1.0
Al1 Mg4 Si6,3,0.0,0.0,0.3636,0.0,0.0,0.0,0.5455,0.0,0.0,0.0,-1.1818,0.59,0.276,0.4,0.1869,0.0,0.0,True,monoclinic,2/m,12,18.3711,2.4053,0.4379
Co4 N12,2,0.0,0.0,0.0,0.0,0.0,0.0,0.0,0.0,0.0,0.25,-1.75,1.16,0.5023,0.7,0.3031,2.0,0.866,True,cubic,m-3,204,7.6571,5.4732,1.0
Si6 Ta3,2,0.0,0.0,0.0,0.0,0.0,0.0,0.6667,0.0,0.0,0.3333,-1.0,0.4,0.1886,0.35,0.165,3.0,1.4142,True,hexagonal,622,181,14.6795,8.9409,0.7278
Co4 K8 O8,3,0.0,0.4,0.0,0.4,0.0,0.0,0.0,0.0,0.0,0.2,0.0,2.62,1.176,1.6,0.7158,2.0,0.9798,True,monoclinic,2/m,14,19.9898,2.8099,0.6941
Co12 Mg2 P7,3,0.0,0.0,0.0952,0.0,0.0,0.0,0.0,0.0,0.0,0.5714,0.3333,0.88,0.2461,0.5,0.1803,1.0,0.4949,True,hexagonal,-6,174,11.5018,6.6867,2.5861
Al20 O48 Y12,3,0.0,0.0,0.0,0.6,0.0,0.0,0.0,0.0,0.0,0.15,0.0,2.22,0.9755,1.2,0.452,3.0,1.0536,True,cubic,m-3m,230,11.1498,4.4204,1.0
Ag6 Rb2 S4,3,0.0,0.1667,0.0,0.0,0.0,0.0,0.0,0.0,0.0,0.5,0.0,1.76,0.5875,1.35,0.4562,2.0,0.9428,True,monoclinic,2/m,12,29.3934,4.4555,0.437
Ga12 Pd1 Y4,3,0.0,0.0,0.0,0.0,0.0,0.0,0.0,0.0,0.0,0.2941,2.9412,0.98,0.2783,0.5,0.2101,1.0,0.4556,True,cubic,m-3m,229,19.1355,6.6294,1.0
Cl6 Sn1 Tl2,3,0.0,0.0,0.0,0.0,0.6667,0.0,0.0,0.0,0.0,0.0,-0.8889,1.54,0.6789,0.9,0.3742,3.0,1.2862,True,cubic,m-3m,225,30.0251,4.5485,1.0
Cr2 O12 Si4,3,0.0,0.0,0.0,0.6667,0.0,0.0,0.2222,0.0,0.0,0.1111,-1.8889,1.78,0.7665,0.8,0.2944,2.0,0.6849,True,monoclinic,2/m,15,11.6945,3.2211,1.2181
Na16 Se40 Sn16,3,0.0,0.2222,0.0,0.5556,0.0,0.0,0.0,0.0,0.0,0.0,-1.7778,1.62,0.6476,0.65,0.2633,2.0,0.6667,True,orthorhombic,mmm,61,29.9831,4.1734,0.8296
Sn4 Sr8,2,0.0,0.0,0.6667,0.0,0.0,0.0,0.0,0.0,0.0,0.0,0.0,1.01,0.4761,0.55,0.2593,0.0,0.0,True,orthorhombic,mmm,62,38.6274,4.2122,0.5332
W4 Zr2,2,0.0,0.0,0.0,0.0,0.0,0.0,0.0,0.0,0.0,1.0,4.0,1.03,0.4855,0.2,0.0943,1.0,0.4714,True,cubic,m-3m,227,18.7869,13.5206,1.0
Al4 Fe6 Si8,3,0.0,0.0,0.0,0.0,0.0,0.0,0.4444,0.0,0.0,0.3333,-0.4444,0.29,0.1123,0.3,0.1312,1.0,0.4714,True,orthorhombic,mmm,63,12.5154,4.9215,0.3629
Li4 Na4 Se4,3,0.0,0.6667,0.0,0.3333,0.0,0.0,0.0,0.0,0.0,0.0,0.0,1.62,0.7522,0.65,0.2656,2.0,0.8165,True,orthorhombic,mmm,62,19.9909,3.015,0.5503
Mn4 O16 Se4,3,0.0,0.0,0.0,0.8333,0.0,0.0,0.0,0.0,0.0,0.1667,-1.3333,1.89,0.716,0.8,0.3263,2.0,0.9428,True,orthorhombic,mmm,62,14.2632,3.8399,0.5435