formula,numberOfSpecies,fracActinoid,fracAlkali,fracAlkaline,fracChalcogen,fracHalogen,fracLanthanoid,fracMetalloid,fracNobleGas,fracRareEarth,fracTransitionMetal,electronsPerAtom,electronegativityRange,electronegativityStd,radiiRange,radiiStd,rowRange,rowStd,ordered,crystalSystem,pointGroup,spaceGroupNumber,volumePerSite,density,c_a
Co5 Pr1,2,0.0,0.0,0.0,0.0,0.0,0.1667,0.0,0.0,0.1667,0.8333,2.1667,0.75,0.2795,0.5,0.1863,4.0,1.4907,True,hexagonal,6/mmm,191,14.4499,8.3425,1.2793
Cs2 I6 Sn1,3,0.0,0.2222,0.0,0.0,0.6667,0.0,0.0,0.0,0.0,0.0,-0.8889,1.87,0.7669,1.2,0.4962,1.0,0.4157,True,cubic,m-3m,225,48.7903,4.3335,1.0
S16 Tm8 Zn4,3,0.0,0.0,0.0,0.0,0.0,0.2857,0.0,0.0,0.2857,0.1429,0.0,1.33,0.6049,0.75,0.3292,5.0,2.1946,True,orthorhombic,mmm,62,23.4657,5.3734,0.4698
Ga4 O6,2,0.0,0.0,0.0,0.6,0.0,0.0,0.0,0.0,0.0,0.0,0.0,1.63,0.7985,0.7,0.3429,2.0,0.9798,True,orthorhombic,mmm,63,9.6498,6.4511,0.3872
Ba4 Na2 Ni6 O12,4,0.0,0.0833,0.1667,0.5,0.0,0.0,0.0,0.0,0.0,0.25,-0.0833,2.55,1.0772,1.55,0.6026,4.0,1.479,True,orthorhombic,mmm,69,14.4388,5.4601,0.8379
Co2 Na12 S8,3,0.0,0.5455,0.0,0.0,0.0,0.0,0.0,0.0,0.0,0.0909,0.0,1.65,0.7752,0.8,0.3755,1.0,0.2875,True,hexagonal,6mm,186,21.6386,2.2682,1.2885
F4 H12 O16 S4,4,0.0,0.0,0.0,0.4444,0.1111,0.0,0.0,0.0,0.0,0.0,-1.5556,1.78,0.6524,0.75,0.2297,2.0,0.6285,True,orthorhombic,mmm,62,11.471,1.8993,0.7971
Ge18 Li3 Ni18,3,0.0,0.0769,0.0,0.0,0.0,0.0,0.4615,0.0,0.0,0.4615,-0.8462,1.03,0.2655,0.2,0.0625,2.0,0.5329,True,hexagonal,6/mmm,191,13.3407,7.6113,1.1167
Al4 Ca4 H4 O20 Si4,5,0.0,0.0,0.1111,0.5556,0.0,0.0,0.1111,0.0,0.0,0.0,-1.1111,2.44,0.9243,1.55,0.446,3.0,0.8165,True,orthorhombic,222,19,9.7884,3.3203,0.6684
Nd4 O14 Pt4,3,0.0,0.0,0.0,0.6364,0.0,0.1818,0.0,0.0,0.1818,0.1818,-0.3636,2.3,0.9004,1.25,0.5041,6.0,2.4797,True,cubic,m-3m,227,13.231,9.0208,1.0
K4 Sn2 Te10,3,0.0,0.25,0.0,0.625,0.0,0.0,0.625,0.0,0.0,0.0,-1.5,1.28,0.546,0.8,0.3432,1.0,0.433,True,tetragonal,4mm,108,36.5059,4.7472,0.876
Li2 O4 Sc2,3,0.0,0.25,0.0,0.5,0.0,0.0,0.0,0.0,0.0,0.25,0.0,2.46,1.1429,1.0,0.4655,2.0,0.866,True,tetragonal,4/mmm,141,10.4346,3.3377,0.7576
Ge3 O6,2,0.0,0.0,0.0,0.6667,0.0,0.0,0.3333,0.0,0.0,0.0,-2.6667,1.43,0.6741,0.65,0.3064,2.0,0.9428,True,trigonal,32,152,14.3494,4.0363,0.8835
As2 Ba2 Cu2,3,0.0,0.0,0.3333,0.0,0.0,0.0,0.3333,0.0,0.0,0.3333,0.3333,1.29,0.554,1.0,0.432,2.0,0.9428,True,hexagonal,6/mmm,194,25.6522,5.951,0.4718
Al2 Mo6,2,0.0,0.0,0.0,0.0,0.0,0.0,0.0,0.0,0.0,0.75,3.75,0.55,0.2382,0.2,0.0866,2.0,0.866,True,cubic,m-3m,223,15.4292,8.47,1.0
Te6 Zr2,2,0.0,0.0,0.0,0.75,0.0,0.0,0.75,0.0,0.0,0.25,-0.5,0.77,0.3334,0.15,0.065,0.0,0.0,True,monoclinic,2/m,11,30.8682,6.375,0.3785
Co4 Li6 O32 P10,4,0.0,0.1154,0.0,0.6154,0.0,0.0,0.0,0.0,0.0,0.0769,-1.5385,2.46,0.878,0.85,0.3213,2.0,0.6166,True,monoclinic,2/m,13,12.2835,2.8573,3.6072
Cr2 P4,2,0.0,0.0,0.0,0.0,0.0,0.0,0.0,0.0,0.0,0.3333,-1.0,0.53,0.2498,0.4,0.1886,1.0,0.4714,True,monoclinic,2/m,12,12.6731,4.9766,0.4708
K3 Na1 O8 Ru2,4,0.0,0.2857,0.0,0.5714,0.0,0.0,0.0,0.0,0.0,0.1429,-0.4286,2.62,1.1394,1.6,0.6649,3.0,1.1628,True,trigonal,-3m,164,17.8463,3.1265,0.7795
Mg2 O14 Si4 Sr4,4,0.0,0.0,0.25,0.5833,0.0,0.0,0.1667,0.0,0.0,0.0,-1.3333,2.49,1.0419,1.4,0.5314,3.0,1.0897,True,tetragonal,-42m,113,14.2781,3.5637,0.6455
Cl20 Rb8 U4,3,0.125,0.25,0.0,0.0,0.625,0.0,0.0,0.0,0.125,0.0,0.375,2.34,1.0549,1.35,0.5831,6.0,1.9843,True,orthorhombic,mmm,62,31.7627,3.831,0.622
Cd4 Ge14 O32,3,0.0,0.0,0.0,0.64,0.0,0.0,0.28,0.0,0.0,0.08,-2.24,1.75,0.7249,0.95,0.352,3.0,1.0954,True,tetragonal,-42m,117,12.3873,5.3046,0.411
Ga4 S6,2,0.0,0.0,0.0,0.0,0.0,0.0,0.0,0.0,0.0,0.0,0.0,0.77,0.3772,0.3,0.147,1.0,0.4899,True,monoclinic,m,9,22.5009,3.478,1.1661
In2 La4 Rh4,3,0.0,0.0,0.0,0.0,0.0,0.4,0.0,0.0,0.4,0.8,3.0,1.18,0.5289,0.6,0.2713,3.0,1.4697,True,tetragonal,4/mmm,127,23.8371,8.3377,0.5179
Bi18 Cd8 Sr18,3,0.0,0.0,0.4091,0.0,0.0,0.0,0.0,0.0,0.0,0.1818,2.4091,1.07,0.4903,0.45,0.205,1.0,0.4917,True,orthorhombic,mmm,55,35.9295,6.5524,0.2098
Cl18 W6,2,0.0,0.0,0.0,0.0,0.75,0.0,0.0,0.0,0.0,0.25,0.25,0.8,0.3464,0.35,0.1516,3.0,1.299,True,trigonal,-3,148,27.5274,4.3764,1.0
Ag3 Pb3 Y3,3,0.0,0.0,0.0,0.0,0.0,0.0,0.0,0.0,0.0,0.6667,2.0,1.11,0.459,0.2,0.0943,1.0,0.4714,True,hexagonal,-6m2,189,25.2258,8.8642,1.6625
Cr2 Li2 O12 Si4,4,0.0,0.1,0.0,0.6,0.0,0.0,0.2,0.0,0.0,0.1,-1.6,2.46,0.9276,0.85,0.3406,2.0,0.6633,True,monoclinic,2/m,15,10.6629,3.2875,0.8188
Al20 Co8,2,0.0,0.0,0.0,0.0,0.0,0.0,0.0,0.0,0.0,0.2857,2.7143,0.27,0.122,0.1,0.0452,1.0,0.4518,True,hexagonal,6/mmm,194,13.8213,4.3384,1.0102
Cl4 Hg4 P2,3,0.0,0.0,0.0,0.0,0.4,0.0,0.0,0.0,0.0,0.4,-0.6,1.16,0.5417,0.5,0.2449,3.0,1.4697,True,monoclinic,2/m,12,25.1441,6.6445,0.7791
As2 Ca2 O7,3,0.0,0.0,0.1818,0.6364,0.0,0.0,0.1818,0.0,0.0,0.0,-1.4545,2.44,0.9584,1.2,0.4643,2.0,0.9621,True,monoclinic,2/m,12,15.0256,3.4359,0.8415
Li4 O14 P4 V2,4,0.0,0.1667,0.0,0.5833,0.0,0.0,0.0,0.0,0.0,0.0833,-1.0833,2.46,0.9749,0.85,0.3473,2.0,0.6236,True,triclinic,-1,2,11.5098,2.8706,0.5989
F2 Li2 O8 P2 V2,5,0.0,0.125,0.0,0.5,0.125,0.0,0.0,0.0,0.0,0.125,-0.75,3.0,1.0051,0.95,0.3542,2.0,0.696,True,triclinic,-1,2,11.4911,3.1042,0.7008
Ca4 O14 Sb4,3,0.0,0.0,0.1818,0.6364,0.0,0.0,0.1818,0.0,0.0,0.0,-1.4545,2.44,0.9741,1.2,0.5042,3.0,1.2398,True,orthorhombic,mmm,74,13.1657,4.9954,1.0006
Er8 H24 O96 S24,4,0.0,0.0,0.0,0.6316,0.0,0.0526,0.0,0.0,0.0526,0.0,-1.5789,2.2,0.6435,1.5,0.331,7.0,1.4529,True,orthorhombic,mmm,61,12.8512,3.1179,0.5666
Ag1 Tb1,2,0.0,0.0,0.0,0.0,0.0,0.5,0.0,0.0,0.5,0.5,2.0,1.93,0.965,0.15,0.075,3.0,1.5,True,cubic,m-3m,221,24.5166,9.0351,0.9998
C5 Rb6,2,0.0,0.5455,0.0,0.0,0.0,0.0,0.0,0.0,0.0,0.0,-1.2727,1.73,0.8614,1.65,0.8216,3.0,1.4938,True,hexagonal,-6m2,189,39.2549,2.203,0.9985
Te12 U7,2,0.3684,0.0,0.0,0.6316,0.0,0.0,0.6316,0.0,0.3684,0.0,0.9474,0.72,0.3473,0.35,0.1688,4.0,1.9295,True,hexagonal,-6,174,29.4716,9.4818,2.9638
B1 Rh3 Sm1,3,0.0,0.0,0.0,0.0,0.0,0.2,0.2,0.0,0.2,0.6,3.0,1.11,0.4302,1.0,0.3162,6.0,1.8974,True,cubic,m-3m,221,15.2691,10.2202,1.0
In1 P1,2,0.0,0.0,0.0,0.0,0.0,0.0,0.0,0.0,0.0,0.0,0.0,0.41,0.205,0.55,0.275,2.0,1.0,True,cubic,-43m,216,26.42,4.5816,1.0
H2 Sb6 Sm10,3,0.0,0.0,0.0,0.0,0.0,0.5556,0.3333,0.0,0.5556,0.0,0.5556,1.03,0.458,1.6,0.4909,7.0,2.2987,True,hexagonal,6/mmm,193,25.8862,7.9692,1.4538
N2 S3 Sm4,3,0.0,0.0,0.0,0.0,0.0,0.4444,0.0,0.0,0.4444,0.0,0.0,1.87,0.8097,1.2,0.5083,6.0,2.708,True,monoclinic,2/m,12,23.0503,5.8084,0.4815
Al2 P2,2,0.0,0.0,0.0,0.0,0.0,0.0,0.0,0.0,0.0,0.0,0.0,0.58,0.29,0.25,0.125,0.0,0.0,True,hexagonal,6mm,186,20.8595,2.3068,0.6089
Ge8 Ir4 Tb4,3,0.0,0.0,0.0,0.0,0.0,0.25,0.5,0.0,0.25,0.25,-0.5,2.2,0.9011,0.5,0.2062,4.0,1.6583,True,orthorhombic,mmm,71,19.3965,10.6247,0.4525
Mn6 O24 P6,3,0.0,0.0,0.0,0.6667,0.0,0.0,0.0,0.0,0.0,0.1667,-1.5,1.89,0.7628,0.8,0.3055,2.0,0.7638,True,monoclinic,m,9,12.612,3.2896,0.8027
Li4 O8 Y4,3,0.0,0.25,0.0,0.5,0.0,0.0,0.0,0.0,0.0,0.25,0.0,2.46,1.1731,1.2,0.5272,3.0,1.299,True,monoclinic,2/m,14,13.3667,3.9706,0.9853
H4 Li4 O10 S2,4,0.0,0.2,0.0,0.5,0.0,0.0,0.0,0.0,0.0,0.0,-1.2,2.46,0.9537,1.2,0.4067,2.0,0.5385,True,monoclinic,2,4,10.7673,1.9734,0.593
Co4 Nd2,2,0.0,0.0,0.0,0.0,0.0,0.3333,0.0,0.0,0.3333,0.6667,2.3333,0.74,0.3488,0.5,0.2357,4.0,1.8856,True,tetragonal,4/mmm,141,16.3271,8.8859,1.0
Mn2 O3 Ta1,3,0.0,0.0,0.0,0.5,0.0,0.0,0.0,0.0,0.0,0.5,0.5,1.94,0.9535,0.85,0.4087,4.0,1.4907,True,hexagonal,6/mmm,191,11.5296,8.1331,1.656
O48 W12 Y8,3,0.0,0.0,0.0,0.7059,0.0,0.0,0.0,0.0,0.0,0.2941,-0.3529,2.22,0.7626,1.2,0.4403,4.0,1.6617,True,orthorhombic,mmm,60,22.1102,4.0702,0.7125
O24 Si12,2,0.0,0.0,0.0,0.6667,0.0,0.0,0.3333,0.0,0.0,0.0,-2.6667,1.54,0.726,0.5,0.2357,1.0,0.4714,True,orthorhombic,mm2,36,17.6887,1.8802,0.4531
Ca4 O16 Rh8,3,0.0,0.0,0.1429,0.5714,0.0,0.0,0.0,0.0,0.0,0.2857,0.0,2.44,0.879,1.2,0.4665,3.0,1.3553,True,orthorhombic,mmm,62,11.2647,6.5258,0.2899
Eu2 Nd4 S8,3,0.0,0.0,0.0,0.0,0.0,0.4286,0.0,0.0,0.4286,0.0,0.0,2.58,0.9669,0.85,0.4206,5.0,2.4744,True,tetragonal,-42m,122,22.9634,5.8749,1.0
S12 Tm8,2,0.0,0.0,0.0,0.0,0.0,0.4,0.0,0.0,0.4,0.0,0.0,1.33,0.6516,0.75,0.3674,5.0,2.4495,True,monoclinic,2/m,11,22.358,6.4476,0.3484
Fe4 K2 Li6 Na4 O60 Si24,6,0.0,0.12,0.0,0.6,0.0,0.0,0.24,0.0,0.0,0.04,-1.96,2.62,0.9412,1.6,0.3971,2.0,0.6,True,hexagonal,6/mmm,192,12.8598,2.6719,0.7129
Cd1 Cs1 F3,3,0.0,0.2,0.0,0.0,0.6,0.0,0.0,0.0,0.0,0.2,0.0,3.19,1.3722,2.1,0.84,4.0,1.7436,True,cubic,m-3m,221,19.0012,5.2839,1.0
Be4 F16 Na8,3,0.0,0.2857,0.1429,0.0,0.5714,0.0,0.0,0.0,0.0,0.0,0.0,3.05,1.4176,1.3,0.5688,1.0,0.4518,True,monoclinic,2/m,14,12.8838,2.4117,0.6944
Mo1 O6 Sr2 Zn1,4,0.0,0.0,0.2,0.6,0.0,0.0,0.0,0.0,0.0,0.2,-0.2,2.49,1.0374,1.4,0.5718,3.0,1.3748,True,cubic,m-3m,225,13.0244,5.5152,1.0
Ce20 Cl8 Ga10,3,0.0,0.0,0.0,0.0,0.2105,0.5263,0.0,0.0,0.5263,0.0,2.1579,2.04,0.7925,0.85,0.3563,5.0,2.2453,True,tetragonal,4/mmm,140,24.9319,6.6308,0.4695
Mn2 O24 P8,3,0.0,0.0,0.0,0.7059,0.0,0.0,0.0,0.0,0.0,0.0588,-2.0,1.89,0.643,0.8,0.2353,2.0,0.5882,True,monoclinic,2,4,14.5743,2.4853,0.6942
Bi16 Se48 Sr16,3,0.0,0.0,0.2,0.6,0.0,0.0,0.0,0.0,0.0,0.0,-0.2,1.6,0.6219,0.85,0.3426,2.0,0.8,True,orthorhombic,222,19,29.0895,6.0906,0.1262
Cd1 Ga2 Se4,3,0.0,0.0,0.0,0.5714,0.0,0.0,0.0,0.0,0.0,0.1429,0.0,0.86,0.3878,0.4,0.1389,1.0,0.3499,True,tetragonal,-4,82,27.1027,4.9688,0.8528
Cd1 O6 Sr2 W1,4,0.0,0.0,0.2,0.6,0.0,0.0,0.0,0.0,0.0,0.2,-0.2,2.49,1.0261,1.4,0.5797,4.0,1.6155,True,tetragonal,4/m,87,14.2784,6.5997,0.9878
Cu4 Ho2 O8,3,0.0,0.0,0.0,0.5714,0.0,0.1429,0.0,0.0,0.1429,0.2857,-0.1429,2.21,0.8968,1.15,0.4542,6.0,2.0603,True,monoclinic,2/m,15,11.0547,7.6397,0.9063
La6 Te8,2,0.0,0.0,0.0,0.5714,0.0,0.4286,0.5714,0.0,0.4286,0.4286,0.1429,1.0,0.4949,0.55,0.2722,3.0,1.4846,True,cubic,-43m,220,32.456,6.7763,1.0
Ge8 Na16 O56 Ti8 Zn16,5,0.0,0.1538,0.0,0.5385,0.0,0.0,0.0769,0.0,0.0,0.2308,-0.6154,2.51,1.0271,1.2,0.4695,2.0,0.8904,True,orthorhombic,mmm,61,12.6464,4.1341,0.2558
Ca1 Tl3,2,0.0,0.0,0.25,0.0,0.0,0.0,0.0,0.0,0.0,0.0,1.25,0.62,0.2685,0.1,0.0433,2.0,0.866,True,cubic,m-3m,221,29.3441,9.2413,1.0
Ir3 Te6,2,0.0,0.0,0.0,0.6667,0.0,0.0,0.6667,0.0,0.0,0.3333,-0.3333,0.1,0.0471,0.05,0.0236,1.0,0.4714,True,monoclinic,2/m,12,24.6628,10.0415,0.3951
Al2 Ce6,2,0.0,0.0,0.0,0.0,0.0,0.75,0.0,0.0,0.75,0.0,3.0,0.49,0.2122,0.6,0.2598,5.0,2.1651,True,hexagonal,6/mmm,194,25.7359,7.2157,1.2714
P4 S12 Ti2,3,0.0,0.0,0.0,0.0,0.0,0.0,0.0,0.0,0.0,0.1111,-1.5556,1.04,0.3363,0.4,0.1257,1.0,0.3143,True,orthorhombic,mm2,43,27.7634,2.0083,0.619
As1 Ca3 Cl3,3,0.0,0.0,0.4286,0.0,0.4286,0.0,0.1429,0.0,0.0,0.0,0.0,2.16,1.0005,0.8,0.3805,1.0,0.4949,True,cubic,m-3m,221,27.6564,2.5862,1.0
Be4 K8 O8,3,0.0,0.4,0.2,0.4,0.0,0.0,0.0,0.0,0.0,0.0,0.0,2.62,1.1929,1.6,0.7291,2.0,0.9798,True,monoclinic,2/m,14,16.6716,2.3747,0.726
Ba2 O6 Pr1 Pt1,4,0.0,0.0,0.2,0.6,0.0,0.1,0.0,0.0,0.1,0.1,-0.3,2.55,1.111,1.55,0.658,6.0,2.2716,True,cubic,m-3m,225,16.1242,7.2773,1.0
B2 Fe2 Tm1,3,0.0,0.0,0.0,0.0,0.0,0.2,0.4,0.0,0.2,0.4,2.6,0.79,0.2896,0.9,0.3507,6.0,2.1909,True,tetragonal,4/mmm,139,11.4015,8.804,0.6563
Al6 F28 Na10,3,0.0,0.2273,0.0,0.0,0.6364,0.0,0.0,0.0,0.0,0.0,0.0,3.05,1.3591,1.3,0.5501,1.0,0.481,True,tetragonal,4/mmm,128,12.1603,2.8668,0.6739
Al6 Zr4,2,0.0,0.0,0.0,0.0,0.0,0.0,0.0,0.0,0.0,0.4,3.4,0.28,0.1372,0.3,0.147,2.0,0.9798,True,orthorhombic,mm2,43,18.8087,4.6508,0.7407
C1 Cl2 Sc2,3,0.0,0.0,0.0,0.0,0.4,0.0,0.0,0.0,0.0,0.4,0.0,1.8,0.8133,0.9,0.36,2.0,0.7483,True,trigonal,-3m,164,20.8097,2.7582,0.3415
Gd2 Rb2 Te8,3,0.0,0.1667,0.0,0.6667,0.0,0.1667,0.6667,0.0,0.1667,0.0,-0.6667,1.28,0.5254,0.95,0.3556,3.0,1.118,True,tetragonal,4/mmm,125,36.5428,5.7037,0.7428
Be26 Mg2,2,0.0,0.0,1.0,0.0,0.0,0.0,0.0,0.0,0.0,0.0,2.0,0.26,0.067,0.45,0.1159,1.0,0.2575,True,cubic,m-3m,226,9.1604,1.8317,1.0
Au1 Sn1 Tm1,3,0.0,0.0,0.0,0.0,0.0,0.3333,0.0,0.0,0.3333,0.3333,0.6667,1.29,0.5275,0.4,0.17,3.0,1.2472,True,cubic,-43m,216,24.8874,10.7781,1.0
Br8 Cu8,2,0.0,0.0,0.0,0.0,0.5,0.0,0.0,0.0,0.0,0.5,0.5,1.06,0.53,0.2,0.1,0.0,0.0,True,cubic,m-3,205,20.8155,5.7218,1.0
Pu4 Si8 Tc6,3,0.2222,0.0,0.0,0.0,0.0,0.0,0.4444,0.0,0.2222,0.3333,0.4444,0.62,0.2578,0.65,0.2507,6.0,2.3094,True,monoclinic,2/m,14,16.0871,10.2573,0.6841
Ba5 Nb4 O15,3,0.0,0.0,0.2083,0.625,0.0,0.0,0.0,0.0,0.0,0.1667,-0.0,2.55,1.1031,1.55,0.6365,4.0,1.748,True,trigonal,-3m,164,15.019,5.9807,0.4906
Co4 Mo4 O16,3,0.0,0.0,0.0,0.6667,0.0,0.0,0.0,0.0,0.0,0.3333,-0.3333,1.56,0.6743,0.85,0.3782,3.0,1.2134,True,triclinic,1,1,13.0557,4.6397,0.8486
Cl2 F12 Pb7,3,0.0,0.0,0.0,0.0,0.6667,0.0,0.0,0.0,0.0,0.0,0.0,1.65,0.7596,1.3,0.5965,4.0,1.8406,True,hexagonal,-6,174,18.1423,7.6243,2.5878
Bi8 Rh4,2,0.0,0.0,0.0,0.0,0.0,0.0,0.0,0.0,0.0,0.3333,3.0,0.26,0.1226,0.25,0.1179,1.0,0.4714,True,monoclinic,2/m,14,25.4177,11.3427,0.9804
Cl6 K2 Sn1,3,0.0,0.2222,0.0,0.0,0.6667,0.0,0.0,0.0,0.0,0.0,-0.8889,2.34,0.9747,1.2,0.4922,2.0,0.6849,True,cubic,m-3m,225,29.814,2.535,1.0
Ga2 Li1 Ru1,3,0.0,0.25,0.0,0.0,0.0,0.0,0.0,0.0,0.0,0.25,2.5,1.22,0.4451,0.15,0.065,3.0,1.0897,True,cubic,m-3m,225,13.9237,7.3779,1.0
Al1 C1 Er3,3,0.0,0.0,0.0,0.0,0.0,0.6,0.0,0.0,0.6,0.0,1.6,1.31,0.5076,1.05,0.4176,6.0,2.7129,True,cubic,m-3m,221,29.8328,6.02,1.0
Ba4 O12 Ru3 Zr1,4,0.0,0.0,0.2,0.6,0.0,0.0,0.0,0.0,0.0,0.2,-0.15,2.55,1.0542,1.55,0.6207,4.0,1.7436,True,trigonal,-3m,166,14.6169,6.4512,1.0
Cu2 Ge2 Ho1,3,0.0,0.0,0.0,0.0,0.0,0.2,0.4,0.0,0.2,0.4,-0.2,0.78,0.2941,0.5,0.1855,4.0,1.6,True,tetragonal,4/mmm,139,16.868,8.6099,0.6825
Be4 Ca4 F4 O16 P4,5,0.0,0.0,0.25,0.5,0.125,0.0,0.0,0.0,0.0,0.0,-1.0,2.98,1.0096,1.3,0.4088,2.0,0.696,True,monoclinic,2/m,14,11.4581,2.9539,0.4914
Ir4 Si4 Y2,3,0.0,0.0,0.0,0.0,0.0,0.0,0.4,0.0,0.0,0.6,0.2,0.98,0.3581,0.7,0.2557,3.0,1.3565,True,tetragonal,4/mmm,129,16.8928,10.4101,0.4201
Mo8 Na8 O48 P8,4,0.0,0.1111,0.0,0.6667,0.0,0.0,0.0,0.0,0.0,0.1111,-1.1111,2.51,0.8614,1.2,0.4289,3.0,0.9558,True,monoclinic,2/m,14,13.4477,3.3738,0.526
O28 P8 V4,3,0.0,0.0,0.0,0.7,0.0,0.0,0.0,0.0,0.0,0.1,-1.5,1.81,0.6741,0.75,0.2534,2.0,0.6633,True,monoclinic,2/m,14,12.5786,2.9688,0.7267
Lu8 O16 Pd4,3,0.0,0.0,0.0,0.5714,0.0,0.2857,0.0,0.0,0.2857,0.1429,0.0,2.17,0.9642,1.15,0.5227,4.0,1.8406,True,orthorhombic,mmm,61,12.7401,9.6889,0.4749
Ag2 Cs4 S8 Ta2,4,0.0,0.25,0.0,0.0,0.0,0.0,0.0,0.0,0.0,0.25,0.0,1.79,0.7477,1.6,0.6543,3.0,1.4087,True,orthorhombic,mmm,70,34.6317,4.0929,0.4649
Li4 O16 Sc4 Si4,4,0.0,0.1429,0.0,0.5714,0.0,0.0,0.1429,0.0,0.0,0.1429,-1.1429,2.46,1.0329,1.0,0.4112,2.0,0.7284,True,orthorhombic,mmm,62,11.0357,3.0949,0.4619
K1 Se2 Yb1,3,0.0,0.25,0.0,0.5,0.0,0.25,0.0,0.0,0.25,0.0,0.0,2.55,1.1086,1.05,0.4421,4.0,1.7321,True,trigonal,-3m,166,30.7139,5.0018,1.0
Li6 O32 P8 V6,4,0.0,0.1154,0.0,0.6154,0.0,0.0,0.0,0.0,0.0,0.1154,-1.0,2.46,0.9206,0.85,0.3351,2.0,0.6837,True,monoclinic,2,4,12.1725,2.9043,0.7521
Ca10 F2 O24 P6,4,0.0,0.0,0.2381,0.5714,0.0476,0.0,0.0,0.0,0.0,0.0,-1.1429,2.98,1.0565,1.3,0.5019,2.0,0.8438,True,hexagonal,6/m,176,12.8634,3.1,1.3697
Ni2 V6,2,0.0,0.0,0.0,0.0,0.0,0.0,0.0,0.0,0.0,1.0,4.25,0.28,0.1212,0.0,0.0,0.0,0.0,True,cubic,m-3m,223,12.7282,6.8988,1.0
C12 Cr2 Cs4 N12 Na2,5,0.0,0.1875,0.0,0.0,0.0,0.0,0.0,0.0,0.0,0.0625,-2.25,2.25,0.8084,1.95,0.6699,4.0,1.3564,True,monoclinic,2/m,14,21.4704,2.4019,0.6924
P12 Ru4,2,0.0,0.0,0.0,0.0,0.0,0.0,0.0,0.0,0.0,0.25,-1.5,0.01,0.0043,0.3,0.1299,2.0,0.866,True,triclinic,-1,2,15.4827,5.2014,0.7272
Ba3 Ca1 Ir2 O9,4,0.0,0.0,0.2667,0.6,0.0,0.0,0.0,0.0,0.0,0.1333,-0.2667,2.55,1.0955,1.55,0.6414,4.0,1.8571,True,trigonal,-3m,164,14.5637,7.453,0.8132
I32 Sn8,2,0.0,0.0,0.0,0.0,0.8,0.0,0.0,0.0,0.0,0.0,-1.6,0.7,0.28,0.05,0.02,0.0,0.0,True,cubic,m-3,205,59.5836,3.491,1.0
Co6 Ge6 Li1,3,0.0,0.0769,0.0,0.0,0.0,0.0,0.4615,0.0,0.0,0.4615,-0.8462,1.03,0.2646,0.2,0.0625,2.0,0.5329,True,hexagonal,6/mmm,191,13.044,7.7986,0.6594
Ga4 Tm2,2,0.0,0.0,0.0,0.0,0.0,0.3333,0.0,0.0,0.3333,0.0,3.0,0.56,0.264,0.45,0.2121,4.0,1.8856,True,orthorhombic,mmm,74,19.8432,8.6021,0.7341
Cr6 Ir2,2,0.0,0.0,0.0,0.0,0.0,0.0,0.0,0.0,0.0,1.0,3.0,0.54,0.2338,0.05,0.0217,2.0,0.866,True,cubic,m-3m,223,12.5669,11.5026,1.0
Ba4 Na2 Nb10 O30,4,0.0,0.0435,0.087,0.6522,0.0,0.0,0.0,0.0,0.0,0.2174,-0.0,2.55,1.0204,1.55,0.5389,4.0,1.5174,True,tetragonal,4mm,100,14.4052,5.0228,0.3277
Ge2 V6,2,0.0,0.0,0.0,0.0,0.0,0.0,0.25,0.0,0.0,0.75,2.75,0.38,0.1645,0.1,0.0433,0.0,0.0,True,cubic,m-3m,223,13.5446,6.9103,1.0
Ni3 V1,2,0.0,0.0,0.0,0.0,0.0,0.0,0.0,0.0,0.0,1.0,2.75,0.28,0.1212,0.0,0.0,0.0,0.0,True,tetragonal,4/mmm,139,11.1694,8.4377,0.8054
Ca8 Ir2 O12,3,0.0,0.0,0.3636,0.5455,0.0,0.0,0.0,0.0,0.0,0.0909,-0.0909,2.44,1.1422,1.2,0.5659,4.0,1.3111,True,trigonal,-3m,167,13.1242,5.1591,1.0
Cu4 Li2 P2,3,0.0,0.25,0.0,0.0,0.0,0.0,0.0,0.0,0.0,0.5,0.5,1.21,0.4559,0.45,0.1709,2.0,0.8292,True,trigonal,-3m,164,13.1232,5.2198,0.538
Li12 Mn8 O48 P12,4,0.0,0.15,0.0,0.6,0.0,0.0,0.0,0.0,0.0,0.1,-1.3,2.46,0.9714,0.85,0.3533,2.0,0.6538,True,monoclinic,2/m,14,11.4316,3.0186,0.671
Cu2 F2 S2 Sr2,4,0.0,0.0,0.25,0.0,0.25,0.0,0.0,0.0,0.0,0.25,0.25,3.03,1.1037,1.5,0.5459,3.0,1.118,True,tetragonal,4/mmm,129,17.1338,4.8998,0.4557
Cd34 La4,2,0.0,0.0,0.0,0.0,0.0,0.1053,0.0,0.0,0.1053,1.0,2.1053,0.59,0.1811,0.4,0.1228,3.0,0.9207,True,hexagonal,6/mmm,194,23.8066,8.0353,1.0167
Ag6 Rb2 Se10 Sm4,4,0.0,0.0909,0.0,0.4545,0.0,0.1818,0.0,0.0,0.1818,0.2727,0.0,1.73,0.6244,1.2,0.3825,4.0,1.4431,True,orthorhombic,mmm,63,27.2695,6.1148,0.248
C2 Co1 Ho1,3,0.0,0.0,0.0,0.0,0.0,0.25,0.0,0.0,0.25,0.25,-0.75,1.32,0.548,1.05,0.4479,6.0,2.4495,True,orthorhombic,mm2,38,11.9267,8.6281,0.9452
Li3 N1,2,0.0,0.75,0.0,0.0,0.0,0.0,0.0,0.0,0.0,0.0,0.0,2.06,0.892,0.8,0.3464,0.0,0.0,True,hexagonal,6/mmm,191,11.2206,1.2886,0.9388
B2 Nd3 Ni13,3,0.0,0.0,0.0,0.0,0.0,0.1667,0.1111,0.0,0.1667,0.7222,2.2778,0.9,0.2962,1.0,0.2621,6.0,1.7069,True,hexagonal,6/mmm,191,13.2576,8.4709,0.46
H4 Mg2 Mo2 O10,4,0.0,0.0,0.1111,0.5556,0.0,0.0,0.0,0.0,0.0,0.1111,-0.6667,2.13,0.7743,1.25,0.4288,4.0,1.1331,True,triclinic,-1,2,12.3395,3.0242,0.8208
Br6 K2 Pt1,3,0.0,0.2222,0.0,0.0,0.6667,0.0,0.0,0.0,0.0,0.1111,-0.2222,2.14,0.8748,1.05,0.4291,2.0,0.6285,True,cubic,m-3m,225,32.8133,4.2323,1.0
Er1 Ir2 Si2,3,0.0,0.0,0.0,0.0,0.0,0.2,0.4,0.0,0.2,0.4,0.2,0.96,0.3507,0.65,0.2379,5.0,1.9391,True,tetragonal,4/mmm,139,16.495,12.2386,0.7103
C1 Dy3 Sn1,3,0.0,0.0,0.0,0.0,0.0,0.6,0.0,0.0,0.6,0.0,0.2,1.33,0.5403,1.05,0.4069,6.0,2.4,True,cubic,m-3m,221,23.392,8.7772,1.0
K12 O14 Ti4,3,0.0,0.4,0.0,0.4667,0.0,0.0,0.0,0.0,0.0,0.1333,0.0,2.62,1.2384,1.6,0.7428,2.0,0.9978,True,monoclinic,2/m,14,19.9295,2.457,0.6922
O1 U1,2,0.5,0.0,0.0,0.5,0.0,0.0,0.0,0.0,0.5,0.0,2.0,2.06,1.03,1.15,0.575,7.0,3.5,True,cubic,m-3m,225,14.3788,14.6683,1.0
In2 Sm4,2,0.0,0.0,0.0,0.0,0.0,0.6667,0.0,0.0,0.6667,0.0,3.0,0.61,0.2876,0.3,0.1414,3.0,1.4142,True,hexagonal,6/mmm,194,30.092,7.6434,0.8015
Fe5 Nd1,2,0.0,0.0,0.0,0.0,0.0,0.1667,0.0,0.0,0.1667,0.8333,2.1667,0.69,0.2571,0.45,0.1677,4.0,1.4907,True,hexagonal,6/mmm,191,15.0688,7.7775,1.3029
Ca16 Ge8 N16,3,0.0,0.0,0.4,0.0,0.0,0.0,0.2,0.0,0.0,0.0,-1.2,2.04,0.9123,1.15,0.5144,2.0,0.9798,True,tetragonal,4/mmm,135,15.9914,3.755,0.4495
Ba4 Hg8 Tl8,3,0.0,0.0,0.2,0.0,0.0,0.0,0.0,0.0,0.0,0.4,1.2,1.11,0.4053,0.65,0.2538,0.0,0.0,True,tetragonal,4/mmm,136,32.0507,9.8156,0.4696
Li2 P2 Sr2,3,0.0,0.3333,0.3333,0.0,0.0,0.0,0.0,0.0,0.0,0.0,0.0,1.24,0.5776,1.0,0.4089,3.0,1.2472,True,hexagonal,6/mmm,194,22.3747,3.1055,0.5438
Ca2 Cu4 O6,3,0.0,0.0,0.1667,0.5,0.0,0.0,0.0,0.0,0.0,0.3333,-0.0,2.44,0.9677,1.2,0.4743,2.0,1.0,True,orthorhombic,mmm,59,12.6977,4.6898,0.3619
Mo16 O46,2,0.0,0.0,0.0,0.7419,0.0,0.0,0.0,0.0,0.0,0.2581,-0.4516,1.28,0.5601,0.85,0.3719,3.0,1.3127,True,monoclinic,2/m,13,14.9919,4.0571,0.235
F16 Rb4 Tl4,3,0.0,0.1667,0.0,0.0,0.6667,0.0,0.0,0.0,0.0,0.0,-0.3333,3.16,1.3214,1.85,0.777,4.0,1.675,True,orthorhombic,mm2,29,19.271,5.254,0.7448
Ga4 Th6,2,0.6,0.0,0.0,0.0,0.0,0.0,0.0,0.0,0.6,0.0,3.6,0.51,0.2498,0.5,0.2449,5.0,2.4495,True,tetragonal,4/mmm,127,27.1121,10.2351,0.5262
Mo6 O32 P8,3,0.0,0.0,0.0,0.6957,0.0,0.0,0.0,0.0,0.0,0.1304,-1.3913,1.28,0.5811,0.85,0.2992,3.0,1.0141,True,monoclinic,2,4,14.3177,3.3669,0.7489
Cs32 Si32,2,0.0,0.5,0.0,0.0,0.0,0.0,0.5,0.0,0.0,0.0,-1.5,1.11,0.555,1.5,0.75,3.0,1.5,True,cubic,-43m,218,40.3528,3.3124,1.0