formula,numberOfSpecies,fracActinoid,fracAlkali,fracAlkaline,fracChalcogen,fracHalogen,fracLanthanoid,fracMetalloid,fracNobleGas,fracRareEarth,fracTransitionMetal,electronsPerAtom,electronegativityRange,electronegativityStd,radiiRange,radiiStd,rowRange,rowStd,ordered,crystalSystem,pointGroup,spaceGroupNumber,volumePerSite,density,c_a
O32 V16 Yb4,3,0.0,0.0,0.0,0.6154,0.0,0.0769,0.0,0.0,0.0769,0.3077,0.5385,3.44,1.1151,1.15,0.4158,6.0,1.6853,True,monoclinic,2/m,14,11.16,5.7778,0.5482
Cs6 F14 Ge2,3,0.0,0.2727,0.0,0.0,0.6364,0.0,0.0909,0.0,0.0,0.0,-0.7273,3.19,1.4239,2.1,0.9182,4.0,1.7628,True,tetragonal,4/mmm,127,21.1954,4.3043,0.7378
I2 La10 Pb6,3,0.0,0.0,0.0,0.0,0.1111,0.5556,0.0,0.0,0.5556,0.5556,2.2222,1.56,0.6591,0.55,0.1696,3.0,1.1547,True,hexagonal,6/mmm,193,33.7739,7.8832,1.3733
As12 Mn16 O48 Rb4,4,0.0,0.05,0.0,0.6,0.0,0.0,0.15,0.0,0.0,0.2,-1.2,2.62,0.8992,1.75,0.4665,3.0,1.0618,True,orthorhombic,mmm,58,15.2172,3.9392,0.3765
S6 Ti2,2,0.0,0.0,0.0,0.0,0.0,0.0,0.0,0.0,0.0,0.25,-0.5,1.04,0.4503,0.4,0.1732,1.0,0.433,True,monoclinic,2/m,11,20.3356,2.9409,0.3589
Na40 Ni8 O32,3,0.0,0.5,0.0,0.4,0.0,0.0,0.0,0.0,0.0,0.1,-0.1,2.51,1.1839,1.2,0.5662,2.0,0.6403,True,orthorhombic,mmm,61,13.9663,2.8254,0.3313
Mg8 O16 Si4,3,0.0,0.0,0.2857,0.5714,0.0,0.0,0.1429,0.0,0.0,0.0,-1.1429,2.13,0.9739,0.9,0.399,1.0,0.4949,True,orthorhombic,mmm,62,10.7094,3.1164,0.4652
I2 P42 Rb8,3,0.0,0.1538,0.0,0.0,0.0385,0.0,0.0,0.0,0.0,0.0,-2.3077,1.84,0.51,1.35,0.4866,2.0,0.7882,True,orthorhombic,mmm,63,29.5474,2.4192,0.7609
N4 Na12 O36 P12 Ti4,5,0.0,0.1765,0.0,0.5294,0.0,0.0,0.0,0.0,0.0,0.0588,-1.3529,2.51,0.9855,1.2,0.4579,2.0,0.6056,True,cubic,23,198,13.1319,2.7355,1.0
Ga4 Ni2 Y2,3,0.0,0.0,0.0,0.0,0.0,0.0,0.0,0.0,0.0,0.5,2.75,0.69,0.273,0.5,0.2103,1.0,0.433,True,orthorhombic,mmm,63,17.4621,6.8241,0.6206
Au1 C2 Na1,3,0.0,0.25,0.0,0.0,0.0,0.0,0.0,0.0,0.0,0.25,-1.0,1.62,0.7,1.1,0.4655,4.0,1.6394,True,tetragonal,4/mmm,123,19.0447,5.3182,0.7264
Br10 In2 Sn4,3,0.0,0.0,0.0,0.0,0.625,0.0,0.0,0.0,0.0,0.0,-1.25,1.18,0.5158,0.4,0.1639,1.0,0.4841,True,tetragonal,4/mmm,140,33.0021,4.7282,0.8867
Fe2 Na2 O16 W4,4,0.0,0.0833,0.0,0.6667,0.0,0.0,0.0,0.0,0.0,0.25,-0.4167,2.51,0.8134,1.2,0.4266,4.0,1.4977,True,monoclinic,2/m,13,12.3646,6.4296,0.5065
Co1 Ga5 Ho1,3,0.0,0.0,0.0,0.0,0.0,0.1429,0.0,0.0,0.1429,0.1429,2.8571,0.65,0.2084,0.45,0.1555,4.0,1.3997,True,tetragonal,4/mmm,123,17.3726,7.8171,0.6186
Cr2 O4,2,0.0,0.0,0.0,0.6667,0.0,0.0,0.0,0.0,0.0,0.3333,-0.3333,1.78,0.8391,0.8,0.3771,2.0,0.9428,True,tetragonal,4/mmm,136,10.0185,4.6406,0.6654
Sb6 Yb10,2,0.0,0.0,0.0,0.0,0.0,0.625,0.375,0.0,0.625,0.0,0.75,2.05,0.9925,0.3,0.1452,3.0,1.4524,True,hexagonal,6/mmm,193,30.6959,8.3206,1.316
Br8 Cu2 H24 N4 O4,5,0.0,0.0,0.0,0.0952,0.1905,0.0,0.0,0.0,0.0,0.0476,-1.1429,1.54,0.469,1.1,0.3894,3.0,1.2307,True,tetragonal,4/mmm,136,12.9906,2.7712,0.9776
Co4 Sn1 U1,3,0.1667,0.0,0.0,0.0,0.0,0.0,0.0,0.0,0.1667,0.6667,1.6667,0.58,0.1945,0.4,0.1462,5.0,1.8257,True,cubic,-43m,216,14.2115,11.5379,1.0
Li8 O28 P8 Sn4,4,0.0,0.1667,0.0,0.5833,0.0,0.0,0.0,0.0,0.0,0.0,-1.8333,2.46,0.9495,0.85,0.3597,3.0,0.862,True,monoclinic,2/m,15,12.7639,3.3233,0.5565
Co1 N1,2,0.0,0.0,0.0,0.0,0.0,0.0,0.0,0.0,0.0,0.5,-0.5,1.16,0.58,0.7,0.35,2.0,1.0,True,cubic,-43m,216,9.6347,6.2856,1.0
Ge4 Na12 Te12,3,0.0,0.4286,0.0,0.4286,0.0,0.0,0.5714,0.0,0.0,0.0,-1.0,1.17,0.5686,0.55,0.222,2.0,0.9258,True,monoclinic,2/m,14,32.7638,3.7969,0.6903
Cd2 Ce4 Se8,3,0.0,0.0,0.0,0.5714,0.0,0.2857,0.0,0.0,0.2857,0.1429,0.0,1.43,0.6384,0.7,0.311,4.0,1.7496,True,tetragonal,-42m,122,25.7944,6.5156,1.0
O8 Rh4 Zn2,3,0.0,0.0,0.0,0.5714,0.0,0.0,0.0,0.0,0.0,0.4286,0.0,1.79,0.7053,0.75,0.3712,3.0,1.3553,True,cubic,m-3m,227,11.5646,6.8762,1.0
H3 Li1 Sr1,3,0.0,0.2,0.2,0.0,0.0,0.0,0.0,0.0,0.0,0.0,0.0,1.25,0.6051,1.75,0.7432,4.0,1.5492,True,cubic,m-3m,221,19.8607,1.6318,1.0
Br2 F2 O4,3,0.0,0.0,0.0,0.5,0.5,0.0,0.0,0.0,0.0,0.0,-1.5,1.02,0.3609,0.65,0.2559,2.0,0.866,True,monoclinic,m,9,18.5376,2.9314,1.0
As16 Zn24,2,0.0,0.0,0.0,0.0,0.0,0.0,0.4,0.0,0.0,0.6,-0.0,0.53,0.2596,0.2,0.098,0.0,0.0,True,tetragonal,4/mmm,137,21.2451,5.4098,0.7075
Cu2 Sn2 Y2,3,0.0,0.0,0.0,0.0,0.0,0.0,0.0,0.0,0.0,0.6667,0.3333,0.74,0.3356,0.45,0.1929,1.0,0.4714,True,hexagonal,6mm,186,21.7587,6.898,0.6231
Cd26 Cs2,2,0.0,0.0714,0.0,0.0,0.0,0.0,0.0,0.0,0.0,0.9286,1.9286,0.9,0.2318,1.05,0.2704,1.0,0.2575,True,cubic,m-3m,226,25.6125,7.3829,1.0
Cr1 O3 Pb1,3,0.0,0.0,0.0,0.6,0.0,0.0,0.0,0.0,0.0,0.2,-0.2,1.78,0.7389,1.2,0.506,4.0,1.6,True,cubic,m-3m,221,12.0265,8.4831,1.0
Bi4 O6,2,0.0,0.0,0.0,0.6,0.0,0.0,0.0,0.0,0.0,0.0,0.0,1.42,0.6957,1.0,0.4899,4.0,1.9596,True,cubic,m-3m,224,17.4577,8.8642,1.0
Ge2 Ti2 Tm2,3,0.0,0.0,0.0,0.0,0.0,0.3333,0.3333,0.0,0.3333,0.3333,1.0,0.76,0.3132,0.5,0.2095,4.0,1.8856,True,tetragonal,4/mmm,129,20.4784,7.8233,0.5312
Cu4 Yb4,2,0.0,0.0,0.0,0.0,0.0,0.5,0.0,0.0,0.5,0.5,2.5,1.9,0.95,0.4,0.2,4.0,2.0,True,orthorhombic,mmm,62,21.7009,9.0517,0.5893
Eu1 Ga2,2,0.0,0.0,0.0,0.0,0.0,0.3333,0.0,0.0,0.3333,0.0,2.6667,1.81,0.8532,0.55,0.2593,4.0,1.8856,True,hexagonal,6/mmm,191,24.3198,6.6324,0.9652
Na4 O6 Ru2,3,0.0,0.3333,0.0,0.5,0.0,0.0,0.0,0.0,0.0,0.1667,-0.1667,2.51,1.1259,1.2,0.5429,3.0,1.0672,True,monoclinic,2,5,11.6623,4.6287,0.5219
Cd1 N3 O6 Rb1,4,0.0,0.0909,0.0,0.5455,0.0,0.0,0.0,0.0,0.0,0.0909,-1.6364,2.62,0.8305,1.75,0.5422,3.0,1.1571,True,trigonal,3,146,15.1256,3.3523,1.0
Dy2 Pd2 Sb2,3,0.0,0.0,0.0,0.0,0.0,0.3333,0.3333,0.0,0.3333,0.3333,0.6667,0.98,0.431,0.35,0.1546,3.0,1.4142,True,hexagonal,6mm,186,22.7272,9.5149,0.6198
Ca8 O16 Si4,3,0.0,0.0,0.2857,0.5714,0.0,0.0,0.1429,0.0,0.0,0.0,-1.1429,2.44,1.0948,1.2,0.5249,2.0,0.8806,True,monoclinic,2/m,14,12.6899,3.2198,0.5944
Li2 O14 P4 Sn2,4,0.0,0.0909,0.0,0.6364,0.0,0.0,0.0,0.0,0.0,0.0,-2.0909,2.46,0.831,0.85,0.3299,3.0,0.8907,True,triclinic,1,1,13.6764,3.3069,0.6024
S8 V6,2,0.0,0.0,0.0,0.0,0.0,0.0,0.0,0.0,0.0,0.4286,1.0,0.95,0.4701,0.35,0.1732,1.0,0.4949,True,hexagonal,6/m,176,16.6257,4.0106,2.7901
Li12 Na3 O16 Rb1 Si4,5,0.0,0.4444,0.0,0.4444,0.0,0.0,0.1111,0.0,0.0,0.0,-0.8889,2.62,1.1729,1.75,0.4858,3.0,0.606,True,tetragonal,4/m,87,10.7713,2.5953,0.7567
La2 Ni1 O4,3,0.0,0.0,0.0,0.5714,0.0,0.2857,0.0,0.0,0.2857,0.4286,0.0,2.34,1.0544,1.35,0.5985,6.0,2.6186,True,tetragonal,4/mmm,139,13.7169,6.9263,0.5732
C4 Cr4 U1,3,0.1111,0.0,0.0,0.0,0.0,0.0,0.0,0.0,0.1111,0.4444,0.2222,1.17,0.4774,1.05,0.3966,7.0,2.1082,True,tetragonal,4/m,87,10.6147,8.5877,0.5187
Ba16 Br8 Si12,3,0.0,0.0,0.4444,0.0,0.2222,0.0,0.3333,0.0,0.0,0.0,-0.6667,2.07,0.8109,1.05,0.5121,3.0,1.3426,True,monoclinic,2/m,14,33.1222,4.4194,0.5837
Rh3 Zr1,2,0.0,0.0,0.0,0.0,0.0,0.0,0.0,0.0,0.0,1.0,3.25,0.95,0.4114,0.2,0.0866,0.0,0.0,True,cubic,m-3m,221,15.683,10.5865,1.0
F1 Li1,2,0.0,0.5,0.0,0.0,0.5,0.0,0.0,0.0,0.0,0.0,0.0,3.0,1.5,0.95,0.475,0.0,0.0,True,cubic,m-3m,225,8.5111,2.5304,1.0
Fe5 N10 Sr10,3,0.0,0.0,0.4,0.0,0.0,0.0,0.0,0.0,0.0,0.2,0.0,2.09,0.937,1.35,0.6045,3.0,1.3565,True,triclinic,-1,2,18.5373,4.6419,0.737
Cl4 O2 Rb8,3,0.0,0.5714,0.0,0.1429,0.2857,0.0,0.0,0.0,0.0,0.0,0.0,2.62,1.2073,1.75,0.7444,3.0,1.1952,True,tetragonal,-42m,122,31.991,3.1795,1.0
Cr4 Li2 O24 P6,4,0.0,0.0556,0.0,0.6667,0.0,0.0,0.0,0.0,0.0,0.1111,-1.4444,2.46,0.8087,0.85,0.3111,2.0,0.6781,True,triclinic,-1,2,12.3142,2.9655,0.9539
Ca4 Ge14 O32,3,0.0,0.0,0.08,0.64,0.0,0.0,0.28,0.0,0.0,0.0,-2.24,2.44,0.8331,1.2,0.3952,2.0,0.96,True,orthorhombic,mm2,32,12.479,4.4957,0.4096
B20 Pr8,2,0.0,0.0,0.0,0.0,0.0,0.2857,0.7143,0.0,0.2857,0.0,3.0,0.91,0.4111,1.0,0.4518,6.0,2.7105,True,monoclinic,2/m,15,13.92,5.7238,0.8643
I24 Pd4 Rb8,3,0.0,0.2222,0.0,0.0,0.6667,0.0,0.0,0.0,0.0,0.1111,-0.2222,1.84,0.7512,0.95,0.395,0.0,0.0,True,orthorhombic,mmm,62,43.0001,4.4572,0.5674
F24 Li8 Tb4,3,0.0,0.2222,0.0,0.0,0.6667,0.1111,0.0,0.0,0.1111,0.0,-0.1111,3.98,1.5907,1.25,0.5017,6.0,1.8856,True,monoclinic,2/m,14,11.3625,4.657,0.3539
K4 O20 Te4 V4,4,0.0,0.125,0.0,0.75,0.0,0.0,0.125,0.0,0.0,0.125,-0.75,2.62,0.9858,1.6,0.5615,3.0,1.1659,True,monoclinic,2/m,14,16.3549,3.7774,0.5491
F28 Sm4 Sn4,3,0.0,0.0,0.0,0.0,0.7778,0.1111,0.0,0.0,0.1111,0.0,-0.8889,2.81,1.0211,1.35,0.4873,6.0,2.0,True,monoclinic,2/m,14,15.9316,4.6563,0.5036
O56 P16 U8,3,0.1,0.0,0.0,0.7,0.0,0.0,0.0,0.0,0.1,0.0,-1.4,2.06,0.7273,1.15,0.3553,7.0,2.0712,True,orthorhombic,mm2,33,13.4987,5.0679,0.5488
F48 Li12 Na12 Sc8,4,0.0,0.3,0.0,0.0,0.6,0.0,0.0,0.0,0.0,0.1,0.0,3.05,1.4367,1.3,0.5564,2.0,0.6538,True,cubic,m-3m,230,13.025,2.5987,1.0
Co6 O40 P12,3,0.0,0.0,0.0,0.6897,0.0,0.0,0.0,0.0,0.0,0.1034,-1.7931,1.56,0.6314,0.75,0.2561,2.0,0.6704,True,orthorhombic,222,20,14.365,2.721,0.6804
Au4 Ca2,2,0.0,0.0,0.3333,0.0,0.0,0.0,0.0,0.0,0.0,0.6667,2.6667,1.54,0.726,0.45,0.2121,2.0,0.9428,True,orthorhombic,mmm,74,23.1573,10.3739,0.7871
La1 Zn1,2,0.0,0.0,0.0,0.0,0.0,0.5,0.0,0.0,0.5,1.0,2.5,0.55,0.275,0.6,0.3,4.0,2.0,True,cubic,m-3m,221,26.5787,6.3824,1.0
Ho5 O12 Re2,3,0.0,0.0,0.0,0.6316,0.0,0.2632,0.0,0.0,0.2632,0.1053,-0.0526,2.21,0.9909,1.15,0.5115,6.0,2.6754,True,monoclinic,2/m,12,13.2418,9.1679,0.7521
Co2 H16 O20 P4,4,0.0,0.0,0.0,0.4762,0.0,0.0,0.0,0.0,0.0,0.0476,-1.5238,1.56,0.6382,1.1,0.2918,3.0,0.794,True,monoclinic,2/m,14,9.2415,2.4722,0.5373
Cd2 Sb2 Sr1,3,0.0,0.0,0.2,0.0,0.0,0.0,0.4,0.0,0.0,0.4,-0.0,1.1,0.4017,0.55,0.2049,0.0,0.0,True,trigonal,-3m,164,31.5118,5.8594,0.6068
Dy8 S12,2,0.0,0.0,0.0,0.0,0.0,0.4,0.0,0.0,0.4,0.0,0.0,1.36,0.6663,0.75,0.3674,5.0,2.4495,True,orthorhombic,mmm,62,21.6141,6.4718,0.3636
Se12 Tl20,2,0.0,0.0,0.0,0.375,0.0,0.0,0.0,0.0,0.0,0.0,-0.125,0.93,0.4502,0.75,0.3631,2.0,0.9682,True,tetragonal,4/mmm,130,29.5897,8.8303,0.6705
Ce2 Ru2 Si2,3,0.0,0.0,0.0,0.0,0.0,0.3333,0.3333,0.0,0.3333,0.3333,0.6667,1.08,0.4552,0.75,0.3171,5.0,2.0548,True,tetragonal,4/mmm,129,19.9531,7.4698,0.6258
Br1 K1 O3,3,0.0,0.2,0.0,0.6,0.2,0.0,0.0,0.0,0.0,0.0,-1.2,2.62,1.0171,1.6,0.6226,2.0,0.9798,True,trigonal,3m,160,18.4318,3.0091,1.0
Ag1 Tm1,2,0.0,0.0,0.0,0.0,0.0,0.5,0.0,0.0,0.5,0.5,2.0,0.68,0.34,0.15,0.075,3.0,1.5,True,cubic,m-3m,221,23.2531,9.8834,1.0
Ba2 Mo1 O6 Sm1,4,0.0,0.0,0.2,0.6,0.0,0.1,0.0,0.0,0.1,0.1,-0.1,2.55,1.1097,1.55,0.6623,6.0,2.1932,True,tetragonal,4/mmm,139,15.9718,6.4142,0.9964
Cu2 Mn4 O8,3,0.0,0.0,0.0,0.5714,0.0,0.0,0.0,0.0,0.0,0.4286,-0.2857,1.89,0.8842,0.8,0.388,2.0,0.9897,True,trigonal,3m,160,11.1307,5.0599,1.0
Cr1 Si2,2,0.0,0.0,0.0,0.0,0.0,0.0,0.6667,0.0,0.0,0.3333,-1.6667,0.24,0.1131,0.3,0.1414,1.0,0.4714,True,tetragonal,4/mmm,139,11.9302,5.0185,0.7082
Br8 K4 Zn2,3,0.0,0.2857,0.0,0.0,0.5714,0.0,0.0,0.0,0.0,0.1429,0.0,2.14,0.957,1.05,0.4613,0.0,0.0,True,monoclinic,2/m,11,35.4337,3.1012,0.7896
Li1 Mg1 P1,3,0.0,0.3333,0.3333,0.0,0.0,0.0,0.0,0.0,0.0,0.0,0.0,1.21,0.5107,0.5,0.2248,1.0,0.4714,True,cubic,-43m,216,18.1478,1.8977,1.0
Al2 Ce2 Co15,3,0.0,0.0,0.0,0.0,0.0,0.1053,0.0,0.0,0.1053,0.7895,2.2105,0.76,0.2382,0.6,0.16,5.0,1.2999,True,trigonal,-3m,166,13.0094,8.1838,1.0
Ba2 P16,2,0.0,0.0,0.1111,0.0,0.0,0.0,0.0,0.0,0.0,0.0,-2.4444,1.3,0.4086,1.15,0.3614,3.0,0.9428,True,triclinic,-1,2,22.6983,3.1304,0.7894
Co1 Si2,2,0.0,0.0,0.0,0.0,0.0,0.0,0.6667,0.0,0.0,0.3333,-2.0,0.02,0.0094,0.25,0.1179,1.0,0.4714,True,cubic,m-3m,225,12.8335,4.9645,1.0
Cu8 Li2 O24 P6,4,0.0,0.05,0.0,0.6,0.0,0.0,0.0,0.0,0.0,0.2,-1.2,2.46,0.7929,0.85,0.33,2.0,0.8047,True,monoclinic,2/m,15,11.7911,3.8449,1.1435
Fe8 Na20 O18,3,0.0,0.4348,0.0,0.3913,0.0,0.0,0.0,0.0,0.0,0.1739,-0.0,2.51,1.1443,1.2,0.5483,2.0,0.7197,True,monoclinic,m,8,13.9387,3.0937,1.0027
Nd8 O20 Ti4,3,0.0,0.0,0.0,0.625,0.0,0.25,0.0,0.0,0.25,0.125,0.0,2.3,1.0553,1.25,0.5482,6.0,2.5372,True,orthorhombic,mmm,62,15.0839,5.7293,0.3339
Ni2 Sb1 Zr1,3,0.0,0.0,0.0,0.0,0.0,0.0,0.25,0.0,0.0,0.75,1.25,0.72,0.2773,0.2,0.0829,1.0,0.5,True,cubic,m-3m,225,15.7892,8.6862,1.0
N8 O24 Sr4,3,0.0,0.0,0.1111,0.6667,0.0,0.0,0.0,0.0,0.0,0.0,-1.7778,2.49,0.7687,1.4,0.4365,3.0,0.9428,True,cubic,m-3,205,13.7926,2.831,1.0
Ag3 Ge3 Tb3,3,0.0,0.0,0.0,0.0,0.0,0.3333,0.3333,0.0,0.3333,0.3333,0.0,2.01,0.9292,0.5,0.2095,4.0,1.6997,True,hexagonal,-6m2,189,21.7346,8.6443,1.7811
Mn16 Zr8,2,0.0,0.0,0.0,0.0,0.0,0.0,0.0,0.0,0.0,1.0,2.6667,0.22,0.1037,0.15,0.0707,1.0,0.4714,True,hexagonal,6/mmm,194,14.4855,7.6843,0.3013
O16 Sn4 W4,3,0.0,0.0,0.0,0.6667,0.0,0.0,0.0,0.0,0.0,0.1667,-1.3333,1.48,0.6143,0.85,0.3782,4.0,1.675,True,orthorhombic,mmm,52,14.3139,7.0871,0.4183
Ce1,1,0.0,0.0,0.0,0.0,0.0,1.0,0.0,0.0,1.0,0.0,3.0,0.0,0.0,0.0,0.0,0.0,0.0,True,cubic,m-3m,229,26.9184,8.6435,1.0
Ba4 Er8 O20 Zn4,4,0.0,0.0,0.1111,0.5556,0.0,0.2222,0.0,0.0,0.2222,0.1111,-0.0,2.55,1.1005,1.55,0.6017,6.0,2.4944,True,orthorhombic,mmm,62,13.9423,8.1684,0.4633
Ca4 Ge4 Pt4,3,0.0,0.0,0.3333,0.0,0.0,0.0,0.3333,0.0,0.0,0.3333,0.0,1.28,0.5509,0.55,0.2392,2.0,0.9428,True,orthorhombic,mmm,62,20.1222,8.4669,0.5921
Mg8 Mo12 O48 Tl8,4,0.0,0.0,0.1053,0.6316,0.0,0.0,0.0,0.0,0.0,0.1579,-0.3158,2.13,0.8385,1.3,0.4934,4.0,1.4868,True,cubic,23,198,17.5109,4.6775,1.0
Li1 Mg1 Pd1 Sn1,4,0.0,0.25,0.25,0.0,0.0,0.0,0.0,0.0,0.0,0.25,0.25,1.22,0.4893,0.1,0.0354,3.0,1.299,True,cubic,-43m,216,17.3401,6.1378,1.0
Ag2 Ba1 Mn1 O8 V2,5,0.0,0.0,0.0714,0.5714,0.0,0.0,0.0,0.0,0.0,0.3571,-0.0,2.55,0.9418,1.55,0.5157,4.0,1.407,True,trigonal,-3,147,14.6762,5.1552,0.7541
O12 P8,2,0.0,0.0,0.0,0.6,0.0,0.0,0.0,0.0,0.0,0.0,-2.4,1.25,0.6124,0.4,0.196,1.0,0.4899,True,monoclinic,2/m,11,19.2752,1.8943,0.7849
Hf2 Sb10 U6,3,0.3333,0.0,0.0,0.0,0.0,0.0,0.5556,0.0,0.3333,0.1111,0.7778,0.75,0.3436,0.3,0.137,4.0,1.8325,True,hexagonal,6/mmm,193,25.336,10.9335,1.4931
Ag2 Cs4 Nb2 Se8,4,0.0,0.25,0.0,0.5,0.0,0.0,0.0,0.0,0.0,0.25,0.0,1.76,0.7283,1.45,0.595,2.0,0.8292,True,orthorhombic,mmm,70,37.5387,4.3264,0.463
Dy4 Mg8,2,0.0,0.0,0.6667,0.0,0.0,0.3333,0.0,0.0,0.3333,0.0,2.3333,0.09,0.0424,0.25,0.1179,5.0,2.357,True,hexagonal,6/mmm,194,25.8999,4.5117,0.6189
H2 Na2 O16 P4 Zn4,5,0.0,0.0714,0.0,0.5714,0.0,0.0,0.0,0.0,0.0,0.1429,-1.2857,2.51,0.8647,1.55,0.4052,3.0,0.8207,True,triclinic,-1,2,13.4718,3.0354,0.5777
Cu2 Gd1 Ge2,3,0.0,0.0,0.0,0.0,0.0,0.2,0.4,0.0,0.2,0.4,-0.2,0.81,0.306,0.55,0.2049,4.0,1.6,True,monoclinic,2/m,12,17.3854,8.2069,0.6916
F6 Na1 P1,3,0.0,0.125,0.0,0.0,0.75,0.0,0.0,0.0,0.0,0.0,-1.0,3.05,1.0942,1.3,0.438,1.0,0.433,True,cubic,m-3m,225,15.3919,2.2649,1.0
Gd1,1,0.0,0.0,0.0,0.0,0.0,1.0,0.0,0.0,1.0,0.0,3.0,0.0,0.0,0.0,0.0,0.0,0.0,True,cubic,m-3m,229,32.8929,7.9385,1.0
P4 V4 Zr4,3,0.0,0.0,0.0,0.0,0.0,0.0,0.0,0.0,0.0,0.6667,2.0,0.86,0.3564,0.55,0.2273,2.0,0.8165,True,orthorhombic,mmm,62,15.4261,6.2125,0.4442
Na8 O8 Sn2,3,0.0,0.4444,0.0,0.4444,0.0,0.0,0.0,0.0,0.0,0.0,-0.8889,2.51,1.1853,1.2,0.5711,3.0,0.9162,True,triclinic,-1,2,15.579,3.2529,0.6641
Co2 Li12 O8,3,0.0,0.5455,0.0,0.3636,0.0,0.0,0.0,0.0,0.0,0.0909,0.0,2.46,1.1493,0.85,0.403,2.0,0.575,True,tetragonal,4/mmm,137,9.2542,2.6847,0.7122
Bi1 Ca3 N1,3,0.0,0.0,0.6,0.0,0.0,0.0,0.0,0.0,0.0,0.0,1.2,2.04,0.816,1.15,0.4468,4.0,1.2649,True,cubic,m-3m,221,23.8152,4.7863,1.0
Ag1 Fe1 O2,3,0.0,0.0,0.0,0.5,0.0,0.0,0.0,0.0,0.0,0.5,-0.25,1.61,0.7808,1.0,0.4555,3.0,1.299,True,trigonal,-3m,166,12.9438,6.2769,1.0
Li4 O20 P4 Ti4,4,0.0,0.125,0.0,0.625,0.0,0.0,0.0,0.0,0.0,0.125,-1.0,2.46,0.9546,0.85,0.3531,2.0,0.696,True,orthorhombic,mmm,62,11.0768,3.1065,0.8594
N4 S4,2,0.0,0.0,0.0,0.0,0.0,0.0,0.0,0.0,0.0,0.0,-2.5,0.46,0.23,0.35,0.175,1.0,0.5,True,monoclinic,2/m,14,20.4491,1.8706,0.4807
Bi4 O48 P16,3,0.0,0.0,0.0,0.7059,0.0,0.0,0.0,0.0,0.0,0.0,-1.9412,1.42,0.5862,1.0,0.2703,4.0,0.9772,True,monoclinic,2/m,14,14.1702,3.618,1.3452
Ce4 In2 Pd4,3,0.0,0.0,0.0,0.0,0.0,0.4,0.0,0.0,0.4,0.4,2.6,1.08,0.4854,0.45,0.2035,3.0,1.4697,True,tetragonal,4/mmm,127,23.3091,8.6612,0.4865
Co4 Ga12,2,0.0,0.0,0.0,0.0,0.0,0.0,0.0,0.0,0.0,0.25,2.75,0.07,0.0303,0.05,0.0217,0.0,0.0,True,tetragonal,4/mmm,136,15.891,7.0039,0.9697
Co4 Tb2,2,0.0,0.0,0.0,0.0,0.0,0.3333,0.0,0.0,0.3333,0.6667,2.3333,1.88,0.8862,0.4,0.1886,4.0,1.8856,True,trigonal,-3m,166,15.4618,9.9088,1.0
K12 Nd4 O60 Si24,4,0.0,0.12,0.0,0.6,0.0,0.04,0.24,0.0,0.04,0.0,-1.92,2.62,1.0012,1.6,0.5465,6.0,1.2812,True,orthorhombic,mmm,55,17.5545,2.5353,0.4608
Mn4 Na3 Te6,3,0.0,0.2308,0.0,0.4615,0.0,0.0,0.4615,0.0,0.0,0.3077,-0.0769,1.17,0.4648,0.4,0.1685,2.0,0.7994,True,monoclinic,2/m,12,31.601,4.2617,0.9557
Al4 Ca4 O10,3,0.0,0.0,0.2222,0.5556,0.0,0.0,0.0,0.0,0.0,0.0,-0.0,2.44,1.0802,1.2,0.4949,2.0,0.8165,True,orthorhombic,mm2,46,11.6272,3.3977,0.6459
Er4 Ni4 O12,3,0.0,0.0,0.0,0.6,0.0,0.2,0.0,0.0,0.2,0.2,-0.2,2.2,0.9379,1.15,0.4823,6.0,2.3324,True,monoclinic,2/m,14,10.7762,8.4428,0.7005
Ba2 Na1 O6 Os1,4,0.0,0.1,0.2,0.6,0.0,0.0,0.0,0.0,0.0,0.1,-0.3,2.55,1.1406,1.55,0.6508,4.0,1.7916,True,cubic,m-3m,225,14.8039,6.5492,1.0
Sb8 Te3,2,0.0,0.0,0.0,0.2727,0.0,0.0,1.0,0.0,0.0,0.0,-2.7273,0.05,0.0223,0.05,0.0223,0.0,0.0,True,trigonal,-3m,166,32.5623,6.2905,1.0
Co2 H2 Na2 O14 P4,5,0.0,0.0833,0.0,0.5833,0.0,0.0,0.0,0.0,0.0,0.0833,-1.5,2.51,0.8323,1.55,0.4047,3.0,0.7454,True,triclinic,-1,2,11.1044,3.2011,0.9773
Li8 O28 P8 Sn4,4,0.0,0.1667,0.0,0.5833,0.0,0.0,0.0,0.0,0.0,0.0,-1.8333,2.46,0.9495,0.85,0.3597,3.0,0.862,True,monoclinic,2/m,14,13.0246,3.2568,1.4988
As2 Ca2 H10 O12,4,0.0,0.0,0.0769,0.4615,0.0,0.0,0.0769,0.0,0.0,0.0,-1.3846,2.44,0.7691,1.55,0.4256,3.0,0.997,True,monoclinic,m,9,10.3571,2.6644,0.7211
Cu3 O2 S2 Sr2,4,0.0,0.0,0.2222,0.2222,0.0,0.0,0.0,0.0,0.0,0.3333,0.2222,2.49,0.8664,1.4,0.4859,3.0,1.0657,True,tetragonal,4/mmm,139,15.8394,5.3816,0.4091
C1 Nb1 Ru3,3,0.0,0.0,0.0,0.0,0.0,0.0,0.0,0.0,0.0,0.8,2.0,0.95,0.3066,0.75,0.2615,3.0,1.2,True,cubic,m-3m,221,13.4356,10.0883,1.0
Nd4 S8,2,0.0,0.0,0.0,0.0,0.0,0.3333,0.0,0.0,0.3333,0.0,-0.3333,1.44,0.6788,0.85,0.4007,5.0,2.357,True,monoclinic,2/m,14,22.1719,5.2019,0.497
Ir6 P6 Sr3,3,0.0,0.0,0.2,0.0,0.0,0.0,0.0,0.0,0.0,0.4,0.4,1.25,0.498,1.0,0.3652,3.0,1.3565,True,trigonal,32,154,18.9951,9.3364,0.9488
Mn4 Y2,2,0.0,0.0,0.0,0.0,0.0,0.0,0.0,0.0,0.0,1.0,2.3333,0.33,0.1556,0.4,0.1886,1.0,0.4714,True,cubic,m-3m,227,15.8215,6.9543,1.0
In2 O7 Si2,3,0.0,0.0,0.0,0.6364,0.0,0.0,0.1818,0.0,0.0,0.0,-1.4545,1.66,0.7705,0.95,0.3742,3.0,1.1355,True,monoclinic,2/m,12,12.4202,4.835,0.8632
Ca1 Si2,2,0.0,0.0,0.3333,0.0,0.0,0.0,0.6667,0.0,0.0,0.0,-2.0,0.9,0.4243,0.7,0.33,1.0,0.4714,True,trigonal,-3m,164,21.623,2.4638,0.7849
O6 Ti4,2,0.0,0.0,0.0,0.6,0.0,0.0,0.0,0.0,0.0,0.4,0.4,1.9,0.9308,0.8,0.3919,2.0,0.9798,True,trigonal,-3m,167,10.5781,4.5126,1.0
B3 Ba4 N6 Na1,4,0.0,0.0714,0.2857,0.0,0.0,0.0,0.2143,0.0,0.0,0.0,0.0,2.15,0.9455,1.5,0.6629,4.0,1.78,True,cubic,m-3m,229,18.2263,4.4823,1.0
Nd6 Te8,2,0.0,0.0,0.0,0.5714,0.0,0.4286,0.5714,0.0,0.4286,0.0,0.1429,0.96,0.4751,0.45,0.2227,3.0,1.4846,True,cubic,-43m,220,31.0602,7.2031,1.0
O6 Tb4,2,0.0,0.0,0.0,0.6,0.0,0.4,0.0,0.0,0.4,0.0,0.0,3.44,1.6852,1.15,0.5634,6.0,2.9394,True,tetragonal,4/mmm,134,15.6032,7.7869,0.8167
Fe1 Sb2 Tb6,3,0.0,0.0,0.0,0.0,0.0,0.6667,0.2222,0.0,0.6667,0.1111,1.5556,2.05,0.9337,0.35,0.1499,4.0,1.5947,True,hexagonal,-6m2,189,27.3509,8.452,1.9914
Mn2 Nd8 O2 Se12,4,0.0,0.0,0.0,0.5833,0.0,0.3333,0.0,0.0,0.3333,0.0833,0.0,2.3,0.7632,1.25,0.3877,6.0,2.075,True,hexagonal,6mm,186,23.9991,6.4675,1.3785
I12 K4 Pt2,3,0.0,0.2222,0.0,0.0,0.6667,0.0,0.0,0.0,0.0,0.1111,-0.2222,1.84,0.7516,0.85,0.3359,2.0,0.5666,True,tetragonal,4/mmm,128,40.2779,4.7398,0.6443
S10 Sm4 Sn2,3,0.0,0.0,0.0,0.0,0.0,0.25,0.0,0.0,0.25,0.0,-1.0,1.41,0.6001,0.85,0.3657,5.0,2.1213,True,orthorhombic,mmm,55,21.8751,5.5011,0.3382
Cd1 Hg1 O2,3,0.0,0.0,0.0,0.5,0.0,0.0,0.0,0.0,0.0,0.5,-0.25,1.75,0.805,0.95,0.4628,4.0,1.7854,True,monoclinic,2/m,12,17.3291,8.2648,0.5532
S4 Si2,2,0.0,0.0,0.0,0.0,0.0,0.0,0.3333,0.0,0.0,0.0,-2.6667,0.68,0.3206,0.1,0.0471,0.0,0.0,True,tetragonal,-42m,122,23.1571,2.2042,0.9564
Cl8 Cr2 Na4,3,0.0,0.2857,0.0,0.0,0.5714,0.0,0.0,0.0,0.0,0.1429,0.1429,2.23,1.0086,0.8,0.3523,1.0,0.3499,True,monoclinic,2/m,14,23.3165,2.4396,0.3454
Ca2 Ge2 Mn2,3,0.0,0.0,0.3333,0.0,0.0,0.0,0.3333,0.0,0.0,0.3333,0.0,1.01,0.4129,0.55,0.2321,0.0,0.0,True,tetragonal,4/mmm,129,21.2488,4.3673,0.5891
B6 Ni20 Sn3,3,0.0,0.0,0.0,0.0,0.0,0.0,0.2069,0.0,0.0,0.6897,1.5862,0.13,0.0522,0.6,0.21,3.0,0.9136,True,cubic,m-3m,225,10.4835,8.711,1.0
Ge4 Ru4 Sm4,3,0.0,0.0,0.0,0.0,0.0,0.3333,0.3333,0.0,0.3333,0.3333,0.6667,1.03,0.4475,0.6,0.2718,4.0,1.6997,True,orthorhombic,mmm,62,19.6622,9.1229,0.6279