formula,numberOfSpecies,fracActinoid,fracAlkali,fracAlkaline,fracChalcogen,fracHalogen,fracLanthanoid,fracMetalloid,fracNobleGas,fracRareEarth,fracTransitionMetal,electronsPerAtom,electronegativityRange,electronegativityStd,radiiRange,radiiStd,rowRange,rowStd,ordered,crystalSystem,pointGroup,spaceGroupNumber,volumePerSite,density,c_a
Ba2 Ho1 Nb1 O6,4,0.0,0.0,0.2,0.6,0.0,0.1,0.0,0.0,0.1,0.1,0.0,2.55,1.1359,1.55,0.6518,6.0,2.1932,True,cubic,m-3m,225,15.5667,6.7042,1.0
Ag4 Hg4 I4 S4,4,0.0,0.0,0.0,0.0,0.25,0.0,0.0,0.0,0.0,0.5,-0.25,0.73,0.3296,0.6,0.2278,3.0,1.0897,True,orthorhombic,222,19,31.4703,6.166,0.8265
N8 O20 Zr16,3,0.0,0.0,0.0,0.4545,0.0,0.0,0.0,0.0,0.0,0.3636,0.0,2.11,0.9708,0.95,0.4505,3.0,1.4431,True,triclinic,1,1,12.3445,5.7831,0.997
K4 O28 P8 Yb4,4,0.0,0.0909,0.0,0.6364,0.0,0.0909,0.0,0.0,0.0909,0.0,-1.4545,3.44,1.174,1.6,0.5272,6.0,1.7297,True,monoclinic,2/m,14,16.3367,3.5676,0.6768
As1 Te1,2,0.0,0.0,0.0,0.5,0.0,0.0,1.0,0.0,0.0,0.0,-2.5,0.08,0.04,0.25,0.125,1.0,0.5,True,cubic,m-3m,225,26.1364,6.4335,1.0
Sr4 Zn8,2,0.0,0.0,0.3333,0.0,0.0,0.0,0.0,0.0,0.0,0.6667,2.0,0.7,0.33,0.65,0.3064,1.0,0.4714,True,hexagonal,6/mmm,194,23.0726,5.2403,0.6545
Li4 Mo4 O28 P8,4,0.0,0.0909,0.0,0.6364,0.0,0.0,0.0,0.0,0.0,0.0909,-1.3636,2.46,0.8133,0.85,0.3299,3.0,0.8907,True,triclinic,-1,2,12.3417,3.386,0.4854
Fe1 K1 Mo2 O8,4,0.0,0.0833,0.0,0.6667,0.0,0.0,0.0,0.0,0.0,0.25,-0.4167,2.62,0.8608,1.6,0.5199,3.0,1.2134,True,trigonal,-3m,164,17.9002,3.2068,0.7785
Hg4 K8 S8,3,0.0,0.4,0.0,0.0,0.0,0.0,0.0,0.0,0.0,0.2,-0.2,1.76,0.7962,1.2,0.5381,3.0,1.0954,True,orthorhombic,mmm,57,32.7132,3.4813,0.6856
C2 Ni1 Tb1,3,0.0,0.0,0.0,0.0,0.0,0.25,0.0,0.0,0.25,0.25,-0.75,2.55,1.045,1.05,0.4479,6.0,2.4495,True,orthorhombic,mm2,38,12.3307,8.1352,0.9633
Li6 S12 Sb6,3,0.0,0.25,0.0,0.0,0.0,0.0,0.25,0.0,0.0,0.0,-1.5,1.6,0.6532,0.45,0.225,3.0,1.0897,True,trigonal,-3,148,22.4183,3.5708,1.0
Ba2 F12 Zr2,3,0.0,0.0,0.125,0.0,0.75,0.0,0.0,0.0,0.0,0.125,0.0,3.09,1.2476,1.65,0.6035,4.0,1.536,True,orthorhombic,mmm,67,15.7507,4.5141,0.8067
Ag4 Rb4 Se16,3,0.0,0.1667,0.0,0.6667,0.0,0.0,0.0,0.0,0.0,0.1667,-1.0,1.73,0.6399,1.2,0.4451,1.0,0.4714,True,orthorhombic,222,19,31.3645,4.4929,0.4276
O2 Sm4,2,0.0,0.0,0.0,0.3333,0.0,0.6667,0.0,0.0,0.6667,0.0,1.3333,2.27,1.0701,1.25,0.5893,6.0,2.8284,True,tetragonal,4/mmm,141,21.8439,8.0255,1.0728
Fe2 O2 Se12 Sm8,4,0.0,0.0,0.0,0.5833,0.0,0.3333,0.0,0.0,0.3333,0.0833,0.0,2.27,0.7384,1.25,0.3877,6.0,2.075,True,hexagonal,6mm,186,23.0918,6.8737,1.3773
Ca1 Mo6 S8,3,0.0,0.0,0.0667,0.0,0.0,0.0,0.0,0.0,0.0,0.4,0.6667,1.58,0.4028,0.8,0.2631,2.0,0.9568,True,trigonal,-3,148,18.7777,5.1422,1.0
Ba4 F8,2,0.0,0.0,0.3333,0.0,0.6667,0.0,0.0,0.0,0.0,0.0,0.0,3.09,1.4566,1.65,0.7778,4.0,1.8856,True,orthorhombic,mmm,63,17.8171,5.4467,0.5777
Ba3 O18 V6,3,0.0,0.0,0.1111,0.6667,0.0,0.0,0.0,0.0,0.0,0.2222,0.0,2.55,0.9902,1.55,0.5264,4.0,1.3699,True,orthorhombic,222,21,16.6896,3.7057,0.9626
Er4 O14 Ti4,3,0.0,0.0,0.0,0.6364,0.0,0.1818,0.0,0.0,0.1818,0.1818,0.0,2.2,0.9903,1.15,0.4807,6.0,2.2709,True,cubic,m-3m,227,11.7727,6.9531,1.0
Na8 O16 U4,3,0.1429,0.2857,0.0,0.5714,0.0,0.0,0.0,0.0,0.1429,0.0,0.0,2.51,1.1761,1.2,0.5858,7.0,2.3733,True,orthorhombic,mmm,61,14.9245,5.5314,0.4908
Cu4 S26 U12,3,0.2857,0.0,0.0,0.0,0.0,0.0,0.0,0.0,0.2857,0.0952,0.6667,1.2,0.5379,0.75,0.3333,6.0,2.6658,True,monoclinic,2/m,15,20.8868,7.466,0.5643
F28 Gd4 Pt4,3,0.0,0.0,0.0,0.0,0.7778,0.1111,0.0,0.0,0.1111,0.1111,-0.2222,2.78,0.9654,1.3,0.4593,6.0,2.1315,True,monoclinic,2/m,14,15.0872,5.9351,0.4979
Al2 Ge2 Na2,3,0.0,0.3333,0.0,0.0,0.0,0.0,0.3333,0.0,0.0,0.0,0.0,1.08,0.4458,0.55,0.2593,1.0,0.4714,True,tetragonal,4/mmm,129,21.632,3.1373,0.558
Ba2 H8 O6,3,0.0,0.0,0.125,0.375,0.0,0.0,0.0,0.0,0.0,0.0,-1.0,2.55,0.8369,1.9,0.601,5.0,1.5811,True,orthorhombic,mm2,26,11.1281,3.532,0.5592
Fe1 Pt3,2,0.0,0.0,0.0,0.0,0.0,0.0,0.0,0.0,0.0,1.0,2.0,0.45,0.1949,0.05,0.0217,2.0,0.866,True,cubic,m-3m,221,14.4859,18.3724,1.0
Al1 K1 O8 S2,4,0.0,0.0833,0.0,0.6667,0.0,0.0,0.0,0.0,0.0,0.0,-1.3333,2.62,0.8426,1.6,0.4589,2.0,0.6401,True,trigonal,32,150,14.3508,2.4898,0.6352
Ag2 Dy2 Sb4,3,0.0,0.0,0.0,0.0,0.0,0.25,0.5,0.0,0.25,0.25,-0.5,0.83,0.3456,0.3,0.1244,3.0,1.299,True,tetragonal,4/mmm,129,24.7044,8.6354,0.4101
Br20 Pa4,2,0.1667,0.0,0.0,0.0,0.8333,0.0,0.0,0.0,0.1667,0.0,-0.0,1.46,0.5441,0.65,0.2422,5.0,1.8634,True,monoclinic,2/m,14,45.1171,3.8679,0.7643
Au4 Na2,2,0.0,0.3333,0.0,0.0,0.0,0.0,0.0,0.0,0.0,0.6667,2.3333,1.61,0.759,0.45,0.2121,3.0,1.4142,True,cubic,m-3m,227,21.0716,10.9518,1.0
B20 Co58 Si8 Tb6,4,0.0,0.0,0.0,0.0,0.0,0.0652,0.3043,0.0,0.0652,0.6304,1.7609,2.04,0.4782,0.9,0.2436,6.0,1.3899,True,tetragonal,4/mmm,129,10.5172,8.2592,0.7027
Dy2 O12 Rh2 Sr6,4,0.0,0.0,0.2727,0.5455,0.0,0.0909,0.0,0.0,0.0909,0.0909,0.0,2.49,1.1351,1.4,0.6312,6.0,1.9667,True,trigonal,-3m,167,14.6428,6.4357,1.0
Dy1 P1,2,0.0,0.0,0.0,0.0,0.0,0.5,0.0,0.0,0.5,0.0,0.0,0.97,0.485,0.75,0.375,5.0,2.5,True,cubic,m-3m,225,22.7688,7.0551,1.0
Al4 Ba2 Te8,3,0.0,0.0,0.1429,0.5714,0.0,0.0,0.5714,0.0,0.0,0.0,0.0,1.21,0.4241,0.9,0.2875,3.0,1.0498,True,tetragonal,4/mmm,125,36.5146,4.5586,0.7766
Be4 F14 Li2 Na4,4,0.0,0.25,0.1667,0.0,0.5833,0.0,0.0,0.0,0.0,0.0,-0.0,3.05,1.3867,1.3,0.5071,1.0,0.3727,True,tetragonal,-42m,113,12.0917,2.3338,0.636
Ag2 Fe2 O4,3,0.0,0.0,0.0,0.5,0.0,0.0,0.0,0.0,0.0,0.5,-0.25,1.61,0.7808,1.0,0.4555,3.0,1.299,True,hexagonal,6/mmm,194,12.9191,6.2889,0.2449
Ge4 Ni4 Pr3,3,0.0,0.0,0.0,0.0,0.0,0.2727,0.3636,0.0,0.2727,0.3636,0.0909,0.88,0.3721,0.6,0.2486,4.0,1.7814,True,monoclinic,2/m,12,19.0964,7.4944,0.3368
P3 Ru3 Sc3,3,0.0,0.0,0.0,0.0,0.0,0.0,0.0,0.0,0.0,0.6667,1.0,0.84,0.3936,0.6,0.2449,2.0,0.8165,True,hexagonal,-6m2,189,15.1097,6.484,1.803
In4 Pt2 Sr2,3,0.0,0.0,0.25,0.0,0.0,0.0,0.0,0.0,0.0,0.25,2.5,1.33,0.4774,0.65,0.2382,1.0,0.433,True,orthorhombic,mmm,63,25.1504,8.4567,0.5675
Ca3 Ga3 O14 Si2 Ta1,5,0.0,0.0,0.1304,0.6087,0.0,0.0,0.087,0.0,0.0,0.0435,-0.6957,2.44,0.9653,1.2,0.444,4.0,1.1016,True,trigonal,32,150,12.7638,4.4715,1.6336
Br2 Ti1,2,0.0,0.0,0.0,0.0,0.6667,0.0,0.0,0.0,0.0,0.3333,0.6667,1.42,0.6694,0.25,0.1179,0.0,0.0,True,trigonal,-3m,164,32.1915,3.5708,0.4677
Au2 Nb3,2,0.0,0.0,0.0,0.0,0.0,0.0,0.0,0.0,0.0,1.0,4.2,0.94,0.4605,0.1,0.049,1.0,0.4899,True,tetragonal,4/mmm,139,18.1145,12.3323,0.424
S12 Tl16,2,0.0,0.0,0.0,0.0,0.0,0.0,0.0,0.0,0.0,0.0,-0.2857,0.96,0.4751,0.9,0.4454,3.0,1.4846,True,monoclinic,2/m,14,31.0405,6.983,0.6367
Li2 Nb2 S4,3,0.0,0.25,0.0,0.0,0.0,0.0,0.0,0.0,0.0,0.25,0.5,1.6,0.6812,0.45,0.225,3.0,1.0897,True,hexagonal,6/mmm,194,16.0456,4.2424,0.2613
La2 Mg4,2,0.0,0.0,0.6667,0.0,0.0,0.3333,0.0,0.0,0.3333,0.3333,2.3333,0.21,0.099,0.45,0.2121,5.0,2.357,True,cubic,m-3m,227,28.2247,3.6774,1.0
F12 Tl4,2,0.0,0.0,0.0,0.0,0.75,0.0,0.0,0.0,0.0,0.0,-0.5,2.36,1.0219,1.4,0.6062,4.0,1.7321,True,orthorhombic,mmm,62,13.5234,8.0237,0.6927
H16 Ni4 O20 Se4,4,0.0,0.0,0.0,0.5455,0.0,0.0,0.0,0.0,0.0,0.0909,-1.2727,1.53,0.6276,1.1,0.3509,3.0,1.0445,True,monoclinic,2/m,14,9.84,3.4009,0.7359
Ce1 Pd3,2,0.0,0.0,0.0,0.0,0.0,0.25,0.0,0.0,0.25,0.75,2.25,1.08,0.4677,0.45,0.1949,3.0,1.299,True,cubic,m-3m,221,18.0591,10.56,1.0
La2 Mn2 Na2 O12 W2,5,0.0,0.1,0.0,0.6,0.0,0.1,0.0,0.0,0.1,0.3,-0.2,2.51,1.0198,1.35,0.5276,6.0,2.0025,True,monoclinic,2,4,13.0548,6.3175,0.6957
Cu2 Er2 Ge2,3,0.0,0.0,0.0,0.0,0.0,0.3333,0.3333,0.0,0.3333,0.3333,0.3333,0.77,0.34,0.5,0.216,4.0,1.8856,True,hexagonal,6mm,186,18.5355,9.0616,0.5985
O12 Tb7,2,0.0,0.0,0.0,0.6316,0.0,0.3684,0.0,0.0,0.3684,0.0,-0.1579,3.44,1.6594,1.15,0.5547,6.0,2.8943,True,trigonal,-3,148,14.7141,7.7481,1.0
F18 Na6 Ti3,3,0.0,0.2222,0.0,0.0,0.6667,0.0,0.0,0.0,0.0,0.1111,0.0,3.05,1.3522,1.3,0.5606,2.0,0.6849,True,trigonal,-3m,164,14.17,2.7062,2.0554
Ca1 I2,2,0.0,0.0,0.3333,0.0,0.6667,0.0,0.0,0.0,0.0,0.0,0.0,1.66,0.7825,0.4,0.1886,1.0,0.4714,True,trigonal,-3m,164,48.0525,3.3853,0.5642
S6 Sc2 U2,3,0.2,0.0,0.0,0.0,0.0,0.0,0.0,0.0,0.2,0.2,0.6,1.22,0.5928,0.75,0.3341,6.0,2.3324,True,orthorhombic,mmm,63,20.7378,6.0724,0.4069
Li2 Mo6 O32 P6,4,0.0,0.0435,0.0,0.6957,0.0,0.0,0.0,0.0,0.0,0.1304,-1.2174,2.46,0.6998,0.85,0.3264,3.0,1.0159,True,triclinic,-1,2,13.524,3.4362,0.5087
Ba4 Ca4 F28 Ga4,4,0.0,0.0,0.2,0.0,0.7,0.0,0.0,0.0,0.0,0.0,0.0,3.09,1.2786,1.65,0.6038,4.0,1.3266,True,monoclinic,2/m,13,14.666,4.3038,0.284
Br4 Cs2 I2 Pd1,4,0.0,0.2222,0.0,0.0,0.6667,0.0,0.0,0.0,0.0,0.1111,-0.2222,2.17,0.8541,1.45,0.5688,2.0,0.7857,True,monoclinic,2/m,12,38.4143,4.542,0.9695
Cu2 In2 Te4,3,0.0,0.0,0.0,0.5,0.0,0.0,0.5,0.0,0.0,0.25,0.25,0.32,0.1367,0.2,0.075,1.0,0.433,True,tetragonal,-42m,122,31.1403,5.7799,0.8155
Al4 S8 Zn2,3,0.0,0.0,0.0,0.0,0.0,0.0,0.0,0.0,0.0,0.1429,0.0,0.97,0.4736,0.35,0.1436,1.0,0.3499,True,cubic,m-3m,227,18.334,3.2041,1.0
Mo8 O32 Pr4 Tl4,4,0.0,0.0,0.0,0.6667,0.0,0.0833,0.0,0.0,0.0833,0.1667,-0.3333,2.31,0.8264,1.3,0.5158,6.0,2.0138,True,orthorhombic,mmm,60,17.8153,5.1666,0.2724
Ba2 Cu3 O6 Y1,4,0.0,0.0,0.1667,0.5,0.0,0.0,0.0,0.0,0.0,0.3333,0.0833,2.55,1.0475,1.55,0.6026,4.0,1.5523,True,tetragonal,-42m,115,15.2917,5.8837,0.3209
Er2 F2 Na2 O8 P2,5,0.0,0.125,0.0,0.5,0.125,0.125,0.0,0.0,0.125,0.0,-1.0,3.05,1.0795,1.3,0.5068,6.0,1.9365,True,monoclinic,2/m,12,12.1479,5.1981,0.8719
Fe4 K2 S6,3,0.0,0.1667,0.0,0.0,0.0,0.0,0.0,0.0,0.0,0.3333,-0.1667,1.76,0.6392,1.2,0.4269,1.0,0.5,True,orthorhombic,mmm,63,21.3888,3.1958,0.7203
B4 Fe4 Ni8 O20,4,0.0,0.0,0.0,0.5556,0.0,0.0,0.1111,0.0,0.0,0.3333,-0.1111,1.61,0.7557,0.8,0.3504,2.0,0.9428,True,orthorhombic,mmm,55,9.7202,5.0119,0.2457
Li6 O36 P10 Sb4,4,0.0,0.1071,0.0,0.6429,0.0,0.0,0.0714,0.0,0.0,0.0,-1.9286,2.46,0.8497,0.85,0.3283,3.0,0.8168,True,triclinic,1,1,12.6092,3.3262,1.4878
O10 P2 Sb2,3,0.0,0.0,0.0,0.7143,0.0,0.0,0.1429,0.0,0.0,0.0,-2.2857,1.39,0.5975,0.85,0.3069,3.0,1.0498,True,monoclinic,2/m,15,12.9179,4.2738,0.7493
Al2 C2 Cr4,3,0.0,0.0,0.0,0.0,0.0,0.0,0.0,0.0,0.0,0.5,1.25,0.94,0.3931,0.7,0.288,2.0,0.8292,True,hexagonal,6/mmm,194,11.1191,5.3383,0.2237
Mn1 O8 Re2,3,0.0,0.0,0.0,0.7273,0.0,0.0,0.0,0.0,0.0,0.2727,-0.5455,1.89,0.7428,0.8,0.3417,4.0,1.5641,True,trigonal,-3,147,16.0342,5.2285,0.9017
Al2 H16 N8 Rb2,4,0.0,0.0714,0.0,0.0,0.0,0.0,0.0,0.0,0.0,0.0,-1.1429,2.22,0.5938,2.1,0.5652,4.0,1.0973,True,tetragonal,4/m,85,13.5204,1.5487,0.4986
Hf1 Rh1 Sb1,3,0.0,0.0,0.0,0.0,0.0,0.0,0.3333,0.0,0.0,0.6667,1.3333,0.98,0.4184,0.2,0.0816,1.0,0.4714,True,cubic,-43m,216,22.7701,9.8002,1.0
C4 Cu2 Rb2,3,0.0,0.25,0.0,0.0,0.0,0.0,0.0,0.0,0.0,0.25,-1.25,1.73,0.707,1.65,0.675,3.0,1.299,True,tetragonal,4/mmm,131,25.8134,2.7828,0.5806
Ca4 N8 O24,3,0.0,0.0,0.1111,0.6667,0.0,0.0,0.0,0.0,0.0,0.0,-1.7778,2.44,0.7533,1.2,0.3738,2.0,0.6285,True,cubic,m-3,205,13.2895,2.2781,1.0
Na8 O28 P8 Zn4,4,0.0,0.1667,0.0,0.5833,0.0,0.0,0.0,0.0,0.0,0.0833,-1.3333,2.51,0.9877,1.2,0.453,2.0,0.6455,True,monoclinic,2/m,14,13.1585,3.0006,0.7545
Cs2 I6 Pt1,3,0.0,0.2222,0.0,0.0,0.6667,0.0,0.0,0.0,0.0,0.1111,-0.2222,1.87,0.7639,1.25,0.5021,1.0,0.4714,True,cubic,m-3m,225,44.9259,5.0199,1.0
Ho2 O3,2,0.0,0.0,0.0,0.6,0.0,0.4,0.0,0.0,0.4,0.0,0.0,2.21,1.0827,1.15,0.5634,6.0,2.9394,True,trigonal,-3m,164,13.5621,9.253,0.624
N12 Sr2,2,0.0,0.0,0.1429,0.0,0.0,0.0,0.0,0.0,0.0,0.0,-2.2857,2.09,0.7313,1.35,0.4724,3.0,1.0498,True,orthorhombic,mmm,70,15.5683,2.6156,0.91
C1 Sc2,2,0.0,0.0,0.0,0.0,0.0,0.0,0.0,0.0,0.0,0.6667,0.6667,1.19,0.561,0.9,0.4243,2.0,0.9428,True,trigonal,-3m,164,18.0917,3.1183,0.5866
Ag6 Se12 Tl6,3,0.0,0.0,0.0,0.5,0.0,0.0,0.0,0.0,0.0,0.25,-0.5,0.93,0.4027,0.75,0.3182,2.0,0.8292,True,trigonal,-3m,162,29.4842,6.62,1.4112
In1 La3 N1,3,0.0,0.0,0.0,0.0,0.0,0.6,0.0,0.0,0.6,0.6,1.8,1.94,0.7554,1.3,0.5044,6.0,2.4,True,cubic,m-3m,221,27.1171,6.6813,1.0
Al2 Mn2 Pt2,3,0.0,0.0,0.0,0.0,0.0,0.0,0.0,0.0,0.0,0.6667,2.3333,0.73,0.3309,0.15,0.0624,3.0,1.2472,True,hexagonal,6/mmm,194,14.853,10.3228,0.7971
Mg6 Mn1 O8,3,0.0,0.0,0.4,0.5333,0.0,0.0,0.0,0.0,0.0,0.0667,-0.1333,2.13,1.0471,0.9,0.4425,2.0,0.6182,True,cubic,m-3m,225,10.1533,3.5845,1.0
Hf4 Ni6 Si8,3,0.0,0.0,0.0,0.0,0.0,0.0,0.4444,0.0,0.0,0.5556,-0.2222,0.61,0.2513,0.45,0.1795,3.0,1.1547,True,orthorhombic,mmm,64,13.542,8.7933,0.7099
Hg2 Se4 Sn1,3,0.0,0.0,0.0,0.5714,0.0,0.0,0.0,0.0,0.0,0.2857,-1.4286,0.59,0.2791,0.35,0.1657,2.0,0.8806,True,tetragonal,-4,82,30.1927,6.5662,0.811
K4 O6 S2,3,0.0,0.3333,0.0,0.5,0.0,0.0,0.0,0.0,0.0,0.0,-1.0,2.62,1.1738,1.6,0.7211,2.0,0.8975,True,trigonal,-3m,164,18.712,2.3407,0.8482
Be8 Cr4,2,0.0,0.0,0.6667,0.0,0.0,0.0,0.0,0.0,0.0,0.3333,2.3333,0.09,0.0424,0.35,0.165,2.0,0.9428,True,hexagonal,6/mmm,194,8.8022,4.4031,0.6102
Ag2 Eu1 Si2,3,0.0,0.0,0.0,0.0,0.0,0.2,0.4,0.0,0.2,0.4,-0.8,1.93,0.7661,0.75,0.3,5.0,1.833,True,tetragonal,4/mmm,139,19.9329,7.0622,0.7042
H2 Lu1,2,0.0,0.0,0.0,0.0,0.0,0.3333,0.0,0.0,0.3333,0.0,0.3333,0.93,0.4384,1.5,0.7071,5.0,2.357,True,cubic,m-3m,225,10.5527,9.2831,1.0
As12 Ba12 Nb4 O4,4,0.0,0.0,0.375,0.125,0.0,0.0,0.375,0.0,0.0,0.125,0.0,2.55,0.84,1.55,0.5531,4.0,1.317,True,orthorhombic,mmm,62,32.8091,4.7174,0.4987
Li4 Mn4 O16 P4,4,0.0,0.1429,0.0,0.5714,0.0,0.0,0.0,0.0,0.0,0.1429,-1.1429,2.46,0.9788,0.85,0.363,2.0,0.7284,True,orthorhombic,mmm,62,11.2093,3.3194,0.4516
Ba4 Cu8 S8,3,0.0,0.0,0.2,0.0,0.0,0.0,0.0,0.0,0.0,0.4,0.4,1.69,0.6197,1.15,0.4202,3.0,1.0954,True,orthorhombic,mmm,62,19.5891,5.5701,0.3889
C12 Mo8 Pr8,3,0.0,0.0,0.0,0.0,0.0,0.2857,0.0,0.0,0.2857,0.2857,0.2857,1.42,0.5934,1.15,0.4938,6.0,2.499,True,monoclinic,2/m,14,16.1845,7.4712,0.5334
Fe2 N4 W2,3,0.0,0.0,0.0,0.0,0.0,0.0,0.0,0.0,0.0,0.5,0.0,1.21,0.5083,0.75,0.3629,4.0,1.6583,True,hexagonal,6/mmm,194,9.9992,11.114,0.2615
In4 S4,2,0.0,0.0,0.0,0.0,0.0,0.0,0.0,0.0,0.0,0.0,0.5,0.8,0.4,0.55,0.275,2.0,1.0,True,orthorhombic,mmm,58,25.6352,4.7572,0.3744
Li2 N2 O6,3,0.0,0.2,0.0,0.6,0.0,0.0,0.0,0.0,0.0,0.0,-1.6,2.46,0.9566,0.85,0.3356,0.0,0.0,True,trigonal,-3m,167,10.099,2.2673,1.0
Br2 Hg2,2,0.0,0.0,0.0,0.0,0.5,0.0,0.0,0.0,0.0,0.5,0.0,0.96,0.48,0.35,0.175,2.0,1.0,True,tetragonal,4/mmm,139,34.8703,6.6786,0.7442
Al8 Sb8,2,0.0,0.0,0.0,0.0,0.0,0.0,0.5,0.0,0.0,0.0,0.0,0.44,0.22,0.2,0.1,2.0,1.0,True,cubic,m-3,205,27.573,4.4789,1.0
Ga4 Mg2 Sc4,3,0.0,0.0,0.2,0.0,0.0,0.0,0.0,0.0,0.0,0.4,2.8,0.5,0.2293,0.3,0.1356,1.0,0.4,True,tetragonal,4/mmm,127,20.2165,4.1671,0.553
O6 Sn2 Zn2,3,0.0,0.0,0.0,0.6,0.0,0.0,0.0,0.0,0.0,0.2,-1.6,1.79,0.807,0.85,0.3932,3.0,1.2649,True,trigonal,3m,161,11.757,6.5568,1.0
H8 N8 S24,3,0.0,0.0,0.0,0.0,0.0,0.0,0.0,0.0,0.0,0.0,-2.0,0.84,0.2664,0.75,0.2977,2.0,0.8,True,monoclinic,2/m,13,22.4209,1.6473,0.6451
Au2 O4 Rb2,3,0.0,0.25,0.0,0.5,0.0,0.0,0.0,0.0,0.0,0.25,0.0,2.62,1.0697,1.75,0.7181,4.0,1.7854,True,orthorhombic,mmm,63,23.1139,5.6473,0.7348
Fe4 S16 Sb8,3,0.0,0.0,0.0,0.0,0.0,0.0,0.2857,0.0,0.0,0.1429,-1.7143,0.75,0.3062,0.45,0.215,2.0,0.8806,True,orthorhombic,mmm,62,22.203,4.5688,0.263
F2 Li4 O8 P2 Ti2,5,0.0,0.2222,0.0,0.4444,0.1111,0.0,0.0,0.0,0.0,0.1111,-0.6667,3.0,1.1189,0.95,0.3921,2.0,0.6667,True,triclinic,1,1,10.7378,3.0193,0.7686
Ga2 S4 Zn1,3,0.0,0.0,0.0,0.0,0.0,0.0,0.0,0.0,0.0,0.1429,0.0,0.93,0.4104,0.35,0.1575,1.0,0.4949,True,monoclinic,m,8,21.3248,3.7056,0.7968
Co9 Pu3,2,0.25,0.0,0.0,0.0,0.0,0.0,0.0,0.0,0.25,0.75,2.5,0.6,0.2598,0.4,0.1732,5.0,2.1651,True,trigonal,-3m,166,13.2296,13.2044,1.0
F28 Gd4 Sn4,3,0.0,0.0,0.0,0.0,0.7778,0.1111,0.0,0.0,0.1111,0.0,-0.8889,2.78,1.0137,1.3,0.4749,6.0,2.0,True,monoclinic,2/m,14,15.7317,4.7962,0.5034
Ga1 Mo4 Se4 Te4,4,0.0,0.0,0.0,0.6154,0.0,0.0,0.3077,0.0,0.0,0.3077,0.2308,0.74,0.2275,0.3,0.1264,1.0,0.4865,True,cubic,-43m,216,24.0798,6.7884,1.0
Pd1 Zr2,2,0.0,0.0,0.0,0.0,0.0,0.0,0.0,0.0,0.0,1.0,3.3333,0.87,0.4101,0.15,0.0707,0.0,0.0,True,tetragonal,4/mmm,139,20.3442,7.8593,0.5666
O8 Si4,2,0.0,0.0,0.0,0.6667,0.0,0.0,0.3333,0.0,0.0,0.0,-2.6667,1.54,0.726,0.5,0.2357,1.0,0.4714,True,orthorhombic,222,20,16.1487,2.0595,0.6105
Dy8 Se12,2,0.0,0.0,0.0,0.6,0.0,0.4,0.0,0.0,0.4,0.0,0.0,1.33,0.6516,0.6,0.2939,4.0,1.9596,True,orthorhombic,mmm,62,24.7368,7.5436,0.361
O11 U3 Y2,3,0.1875,0.0,0.0,0.6875,0.0,0.0,0.0,0.0,0.1875,0.125,0.125,2.22,0.9855,1.2,0.5425,7.0,2.7322,True,orthorhombic,mmm,71,12.1047,9.1559,0.5709
Al8 Ba2 Na4 O32 Si8,5,0.0,0.0741,0.037,0.5926,0.0,0.0,0.1481,0.0,0.0,0.0,-1.1852,2.55,0.9732,1.55,0.4416,4.0,0.8331,True,orthorhombic,mm2,45,13.7438,2.9515,0.8063
Cu1 Sm1,2,0.0,0.0,0.0,0.0,0.0,0.5,0.0,0.0,0.5,0.5,2.5,0.73,0.365,0.5,0.25,4.0,2.0,True,cubic,m-3m,221,22.2435,7.9844,1.0
Ce3 Cu4 Ge4,3,0.0,0.0,0.0,0.0,0.0,0.2727,0.3636,0.0,0.2727,0.3636,0.0909,0.89,0.3748,0.6,0.2486,4.0,1.7814,True,monoclinic,2/m,12,18.6949,7.793,0.5366
Ni34 Th4,2,0.1053,0.0,0.0,0.0,0.0,0.0,0.0,0.0,0.1053,0.8947,2.2105,0.61,0.1872,0.45,0.1381,5.0,1.5345,True,hexagonal,6/mmm,194,12.763,10.0104,1.0315
C2 Ca1 Mg1 O6,4,0.0,0.0,0.2,0.6,0.0,0.0,0.0,0.0,0.0,0.0,-1.6,2.44,0.8968,1.2,0.4173,2.0,0.6403,True,trigonal,-3,148,11.0622,2.768,1.0
Ca9 O15 Si3,3,0.0,0.0,0.3333,0.5556,0.0,0.0,0.1111,0.0,0.0,0.0,-0.8889,2.44,1.1309,1.2,0.5479,2.0,0.9162,True,trigonal,3m,160,13.8705,3.037,1.0
Cu4 In1 Sc1,3,0.0,0.0,0.0,0.0,0.0,0.0,0.0,0.0,0.0,0.8333,2.3333,0.54,0.1972,0.25,0.107,1.0,0.3727,True,cubic,-43m,216,14.7779,7.7525,1.0
Cl1 O4 Tl1,3,0.0,0.0,0.0,0.6667,0.1667,0.0,0.0,0.0,0.0,0.0,-1.3333,1.82,0.6653,1.3,0.4776,4.0,1.4625,True,cubic,-43m,216,19.6641,4.2762,1.0
O12 Pd2 Sr8,3,0.0,0.0,0.3636,0.5455,0.0,0.0,0.0,0.0,0.0,0.0909,-0.1818,2.49,1.1652,1.4,0.6576,3.0,1.4938,True,trigonal,-3m,167,15.2559,5.471,1.0
K4 O28 P8 Ti4,4,0.0,0.0909,0.0,0.6364,0.0,0.0,0.0,0.0,0.0,0.0909,-1.3636,2.62,0.9105,1.6,0.4852,2.0,0.782,True,monoclinic,2/m,14,14.1892,2.7758,0.7202
Ge4 Pd4,2,0.0,0.0,0.0,0.0,0.0,0.0,0.5,0.0,0.0,0.5,-1.0,0.19,0.095,0.15,0.075,1.0,0.5,True,orthorhombic,mmm,62,16.6589,8.9243,0.5715
N4 Pr8 Se6,3,0.0,0.0,0.0,0.3333,0.0,0.4444,0.0,0.0,0.4444,0.0,0.0,1.91,0.8227,1.2,0.483,6.0,2.4944,True,monoclinic,2/m,15,24.9458,6.1279,0.7799
Nb3 Te6,2,0.0,0.0,0.0,0.6667,0.0,0.0,0.6667,0.0,0.0,0.3333,0.3333,0.5,0.2357,0.05,0.0236,0.0,0.0,True,monoclinic,2/m,12,27.5959,6.9822,0.3812
Ag1 Mg2 Sm1,3,0.0,0.0,0.5,0.0,0.0,0.25,0.0,0.0,0.25,0.25,2.0,0.76,0.2943,0.35,0.1431,5.0,2.0463,True,cubic,m-3m,225,22.7436,5.6007,1.0
Bi1 Er1,2,0.0,0.0,0.0,0.0,0.0,0.5,0.0,0.0,0.5,0.0,3.0,0.78,0.39,0.15,0.075,2.0,1.0,True,cubic,m-3m,225,31.116,10.0392,1.0
S9 Tl18,2,0.0,0.0,0.0,0.0,0.0,0.0,0.0,0.0,0.0,0.0,0.0,0.96,0.4525,0.9,0.4243,3.0,1.4142,True,trigonal,3,146,32.7359,7.4538,1.0
C24 Cs3,2,0.0,0.1111,0.0,0.0,0.0,0.0,0.0,0.0,0.0,0.0,-3.4444,1.76,0.5531,1.9,0.5971,4.0,1.2571,True,hexagonal,6/mmm,191,14.6021,2.8934,0.2707
Ho1 O4 Ta1,3,0.0,0.0,0.0,0.6667,0.0,0.1667,0.0,0.0,0.1667,0.1667,0.0,2.21,0.9813,1.15,0.4793,6.0,2.4267,True,tetragonal,-42m,115,11.2815,10.055,0.6838
La1 N1,2,0.0,0.0,0.0,0.0,0.0,0.5,0.0,0.0,0.5,0.5,0.0,1.94,0.97,1.3,0.65,6.0,3.0,True,cubic,m-3m,221,15.9363,7.9666,1.0
Ni4 O12 Y4,3,0.0,0.0,0.0,0.6,0.0,0.0,0.0,0.0,0.0,0.4,-0.2,2.22,0.9441,1.2,0.4984,3.0,1.2649,True,monoclinic,2/m,14,10.9803,5.916,0.6987
Hf4 Pd12,2,0.0,0.0,0.0,0.0,0.0,0.0,0.0,0.0,0.0,1.0,2.5,0.9,0.3897,0.15,0.065,1.0,0.433,True,hexagonal,6/mmm,194,16.187,12.7654,0.6097
Ni3 Se2,2,0.0,0.0,0.0,0.4,0.0,0.0,0.0,0.0,0.0,0.6,0.4,0.64,0.3135,0.2,0.098,0.0,0.0,True,trigonal,32,155,15.1843,7.3052,1.0
Ba3 Ho4 O9,3,0.0,0.0,0.1875,0.5625,0.0,0.25,0.0,0.0,0.25,0.0,0.0,2.55,1.1739,1.55,0.6685,6.0,2.6339,True,trigonal,3,146,17.2811,7.301,1.0
La1 Ni5,2,0.0,0.0,0.0,0.0,0.0,0.1667,0.0,0.0,0.1667,1.0,2.1667,0.81,0.3019,0.6,0.2236,4.0,1.4907,True,hexagonal,6/mmm,191,14.2403,8.4031,1.2543
Ag4 Cs4 S8 Ti2,4,0.0,0.2222,0.0,0.0,0.0,0.0,0.0,0.0,0.0,0.3333,0.0,1.79,0.7024,1.6,0.6182,3.0,1.2273,True,tetragonal,4/mmm,132,29.0434,4.178,0.4363
Ba2 Cu3 Ho1 O7,4,0.0,0.0,0.1538,0.5385,0.0,0.0769,0.0,0.0,0.0769,0.2308,-0.0769,2.55,1.0398,1.55,0.5926,6.0,1.946,True,orthorhombic,mmm,47,13.6392,6.951,0.3254
Eu4 K4 O16 P4,4,0.0,0.1429,0.0,0.5714,0.0,0.1429,0.0,0.0,0.1429,0.0,-1.1429,3.44,1.3431,1.6,0.6295,6.0,2.0504,True,orthorhombic,mmm,62,14.5807,4.6536,0.5751
Ga1 Nb1 Ni2,3,0.0,0.0,0.0,0.0,0.0,0.0,0.0,0.0,0.0,0.75,3.0,0.31,0.1266,0.15,0.0545,1.0,0.433,True,cubic,m-3m,225,13.4388,8.6499,1.0
Mn3 Pt1,2,0.0,0.0,0.0,0.0,0.0,0.0,0.0,0.0,0.0,1.0,2.0,0.73,0.3161,0.05,0.0217,2.0,0.866,True,cubic,m-3m,221,14.7071,10.1588,1.0