formula,numberOfSpecies,fracActinoid,fracAlkali,fracAlkaline,fracChalcogen,fracHalogen,fracLanthanoid,fracMetalloid,fracNobleGas,fracRareEarth,fracTransitionMetal,electronsPerAtom,electronegativityRange,electronegativityStd,radiiRange,radiiStd,rowRange,rowStd,ordered,crystalSystem,pointGroup,spaceGroupNumber,volumePerSite,density,c_a
B20 Ce4 Ni2,3,0.0,0.0,0.0,0.0,0.0,0.1538,0.7692,0.0,0.1538,0.0769,2.9231,0.92,0.3295,1.0,0.3689,6.0,2.1648,True,orthorhombic,mmm,55,9.9931,5.7141,0.3733
Cl2 Zr2,2,0.0,0.0,0.0,0.0,0.5,0.0,0.0,0.0,0.0,0.5,1.5,1.83,0.915,0.55,0.275,2.0,1.0,True,monoclinic,2/m,12,25.4655,4.1301,0.3432
Np1 Rh3,2,0.25,0.0,0.0,0.0,0.0,0.0,0.0,0.0,0.25,0.75,3.5,0.92,0.3984,0.4,0.1732,4.0,1.7321,True,cubic,m-3m,221,16.1063,14.0656,1.0
Hg6 Sc2,2,0.0,0.0,0.0,0.0,0.0,0.0,0.0,0.0,0.0,1.0,1.5,0.64,0.2771,0.1,0.0433,2.0,0.866,True,hexagonal,6/mmm,194,22.3418,12.0169,1.3257
Li6 N6 Th3,3,0.2,0.4,0.0,0.0,0.0,0.0,0.0,0.0,0.2,0.0,0.0,2.06,0.964,1.15,0.4669,7.0,2.8,True,trigonal,-3,147,13.1411,6.923,1.1556
O2 Ti4 Zr2,3,0.0,0.0,0.0,0.25,0.0,0.0,0.0,0.0,0.0,0.75,2.5,2.11,0.8573,0.95,0.3731,3.0,1.0897,True,orthorhombic,mmm,65,15.7364,5.3541,0.6928
O24 Sr4 V8,3,0.0,0.0,0.1111,0.6667,0.0,0.0,0.0,0.0,0.0,0.2222,0.0,2.49,0.9778,1.4,0.4888,3.0,1.1331,True,orthorhombic,mmm,62,13.1762,3.9978,0.2857
Cs4 I4 O16,3,0.0,0.1667,0.0,0.6667,0.1667,0.0,0.0,0.0,0.0,0.0,-1.3333,2.65,0.9721,2.0,0.7454,4.0,1.675,True,orthorhombic,mmm,62,23.0127,3.8942,0.4063
Fe3 Ge3 Hf3,3,0.0,0.0,0.0,0.0,0.0,0.0,0.3333,0.0,0.0,0.6667,0.6667,0.71,0.3014,0.3,0.1225,2.0,0.9428,True,hexagonal,-6m2,189,15.2783,11.1213,1.7478
C12 Na16 O44 U4,4,0.0526,0.2105,0.0,0.5789,0.0,0.0,0.0,0.0,0.0526,0.0,-1.2632,2.51,1.0346,1.2,0.5159,7.0,1.5666,True,trigonal,-3m,165,13.4037,3.5341,0.7139
Ge4 In1 Ni2 Tm4,4,0.0,0.0,0.0,0.0,0.0,0.3636,0.3636,0.0,0.3636,0.1818,0.2727,0.76,0.3423,0.5,0.2219,4.0,1.8763,True,monoclinic,2/m,12,19.3684,9.3411,0.527
Fe3 Ge3,2,0.0,0.0,0.0,0.0,0.0,0.0,0.5,0.0,0.0,0.5,-1.0,0.18,0.09,0.15,0.075,0.0,0.0,True,hexagonal,6/mmm,191,14.4321,7.3917,1.2299
Cd14 P20,2,0.0,0.0,0.0,0.0,0.0,0.0,0.0,0.0,0.0,0.4118,-0.9412,0.5,0.2461,0.55,0.2707,2.0,0.9843,True,orthorhombic,mm2,43,22.4395,4.7735,0.3314
Lu8 O20 Si4,3,0.0,0.0,0.0,0.625,0.0,0.25,0.125,0.0,0.25,0.0,-1.0,2.17,0.9662,1.15,0.4893,4.0,1.691,True,monoclinic,2/m,15,12.9956,7.3155,0.7029
Er16 O28 S12 Si8,4,0.0,0.0,0.0,0.4375,0.0,0.25,0.125,0.0,0.25,0.0,-1.0,2.2,0.9101,1.15,0.4596,6.0,2.4551,True,tetragonal,4/mmm,141,14.4199,6.7179,1.0
Br4 K2 Pd1,3,0.0,0.2857,0.0,0.0,0.5714,0.0,0.0,0.0,0.0,0.1429,0.0,2.14,0.9341,1.05,0.4596,1.0,0.3499,True,tetragonal,4/mmm,123,36.1613,3.3078,0.5904
Ge4 La3 Pd4,3,0.0,0.0,0.0,0.0,0.0,0.2727,0.3636,0.0,0.2727,0.6364,0.0909,1.1,0.4549,0.7,0.2856,4.0,1.616,True,orthorhombic,mmm,71,21.6935,7.8839,0.3244
Bi2 Pb2 Pd4,3,0.0,0.0,0.0,0.0,0.0,0.0,0.0,0.0,0.0,0.5,2.25,0.31,0.1103,0.4,0.1658,1.0,0.5,True,monoclinic,m,8,21.8046,11.9758,0.9863
K8 Ni8 O48 S12,4,0.0,0.1053,0.0,0.6316,0.0,0.0,0.0,0.0,0.0,0.1053,-1.2632,2.62,0.8705,1.6,0.5075,2.0,0.8154,True,cubic,23,198,13.0788,3.2327,1.0
Ge2 Np1 Rh2,3,0.2,0.0,0.0,0.0,0.0,0.0,0.4,0.0,0.2,0.4,0.6,0.92,0.3364,0.5,0.1855,5.0,1.8547,True,tetragonal,4/mmm,139,17.9653,10.8715,0.6827
Br2 F2 Pb2,3,0.0,0.0,0.0,0.0,0.6667,0.0,0.0,0.0,0.0,0.0,0.0,1.65,0.6799,1.3,0.5307,4.0,1.633,True,tetragonal,4/mmm,129,23.0602,7.3474,0.5441
Mn1 V1,2,0.0,0.0,0.0,0.0,0.0,0.0,0.0,0.0,0.0,1.0,3.5,0.08,0.04,0.05,0.025,0.0,0.0,True,cubic,m-3m,221,11.8695,7.4063,1.0
Na1 Pb3,2,0.0,0.25,0.0,0.0,0.0,0.0,0.0,0.0,0.0,0.0,1.75,1.4,0.6062,0.0,0.0,3.0,1.299,True,cubic,m-3m,221,30.2591,8.8433,1.0
Cd2 Lu4 S8,3,0.0,0.0,0.0,0.0,0.0,0.2857,0.0,0.0,0.2857,0.1429,0.0,1.31,0.5933,0.75,0.3437,3.0,1.3553,True,cubic,m-3m,227,24.5719,5.7018,1.0
O22 Sr2 V12,3,0.0,0.0,0.0556,0.6111,0.0,0.0,0.0,0.0,0.0,0.3333,0.5556,2.49,0.9415,1.4,0.4347,3.0,1.0672,True,hexagonal,6/mmm,194,11.2732,4.6585,0.4407
Co2 La3 Sn7,3,0.0,0.0,0.0,0.0,0.0,0.25,0.0,0.0,0.25,0.4167,-1.25,0.86,0.3658,0.6,0.229,4.0,1.441,True,orthorhombic,mmm,65,24.9825,7.5638,0.3301
La8 O28 Si8,3,0.0,0.0,0.0,0.6364,0.0,0.1818,0.1818,0.0,0.1818,0.1818,-1.4545,2.34,0.9639,1.35,0.5135,6.0,2.26,True,triclinic,-1,2,13.6606,4.9283,0.544
K4 Nb8 O34 P4 Si1,5,0.0,0.0784,0.0,0.6667,0.0,0.0,0.0196,0.0,0.0,0.1569,-0.7843,2.62,0.9226,1.6,0.4915,3.0,1.1389,True,tetragonal,-42m,115,14.8712,3.4935,0.6052
F4 H8 O4 Rb4,4,0.0,0.2,0.0,0.2,0.2,0.0,0.0,0.0,0.0,0.0,-0.8,3.16,1.102,2.1,0.7921,4.0,1.4697,True,orthorhombic,mmm,62,14.6435,2.7778,0.4981
Ge3 Pd6,2,0.0,0.0,0.0,0.0,0.0,0.0,0.3333,0.0,0.0,0.6667,0.0,0.19,0.0896,0.15,0.0707,1.0,0.4714,True,hexagonal,-6m2,189,15.5095,10.1884,1.9175
Ga3 Lu1,2,0.0,0.0,0.0,0.0,0.0,0.25,0.0,0.0,0.25,0.0,3.0,0.54,0.2338,0.45,0.1949,2.0,0.866,True,cubic,m-3m,221,18.8221,8.4724,1.0
Sb2 Se2 U2,3,0.3333,0.0,0.0,0.3333,0.0,0.0,0.3333,0.0,0.3333,0.0,0.3333,1.17,0.4793,0.6,0.2449,5.0,2.1602,True,tetragonal,4/mmm,129,25.0926,9.6783,0.4821
Cu9 Li6 O32 P8,4,0.0,0.1091,0.0,0.5818,0.0,0.0,0.0,0.0,0.0,0.1636,-1.1636,2.46,0.8846,0.85,0.3453,2.0,0.7593,True,triclinic,-1,2,11.119,3.729,1.0392
B4 H16 K4,3,0.0,0.1667,0.0,0.0,0.0,0.0,0.1667,0.0,0.0,0.0,0.0,1.38,0.5058,1.95,0.7163,3.0,1.1055,True,orthorhombic,mmm,62,10.2293,1.4594,0.4181
Ir4 Sr2,2,0.0,0.0,0.3333,0.0,0.0,0.0,0.0,0.0,0.0,0.6667,2.6667,1.25,0.5893,0.65,0.3064,1.0,0.4714,True,cubic,m-3m,227,19.4609,13.4263,1.0
Co2 Si4 Tb2,3,0.0,0.0,0.0,0.0,0.0,0.25,0.5,0.0,0.25,0.25,-0.75,1.9,0.8199,0.65,0.2658,5.0,2.0616,True,orthorhombic,mmm,63,16.3892,6.9411,0.4792
H4 Sr2,2,0.0,0.0,0.3333,0.0,0.0,0.0,0.0,0.0,0.0,0.0,0.0,1.25,0.5893,1.75,0.825,4.0,1.8856,True,hexagonal,6/mmm,194,13.9373,3.5598,0.7258
Se8 Sm6,2,0.0,0.0,0.0,0.5714,0.0,0.4286,0.0,0.0,0.4286,0.0,0.1429,1.38,0.6829,0.7,0.3464,4.0,1.9795,True,cubic,-43m,220,24.7641,7.3465,1.0
Bi4 Cl12,2,0.0,0.0,0.0,0.0,0.75,0.0,0.0,0.0,0.0,0.0,0.0,1.14,0.4936,0.6,0.2598,3.0,1.299,True,orthorhombic,mm2,33,31.3149,4.1804,0.7701
Rh2 Si6 Y6,3,0.0,0.0,0.0,0.0,0.0,0.0,0.4286,0.0,0.0,0.5714,0.0,1.06,0.4032,0.7,0.3259,2.0,0.9897,True,monoclinic,2/m,12,20.3804,5.283,0.3288
C2 Nd1,2,0.0,0.0,0.0,0.0,0.0,0.3333,0.0,0.0,0.3333,0.0,-1.6667,1.41,0.6647,1.15,0.5421,6.0,2.8284,True,tetragonal,4/mmm,139,15.92,5.8503,0.9096
Lu8 O20 Si4,3,0.0,0.0,0.0,0.625,0.0,0.25,0.125,0.0,0.25,0.0,-1.0,2.17,0.9662,1.15,0.4893,4.0,1.691,True,monoclinic,2/m,14,12.3877,7.6745,0.7327
Fe4 Li16 O32 P8,4,0.0,0.2667,0.0,0.5333,0.0,0.0,0.0,0.0,0.0,0.0667,-1.0667,2.46,1.063,0.85,0.3815,2.0,0.5735,True,monoclinic,2/m,14,11.5195,2.6288,0.993
Hf4 O8,2,0.0,0.0,0.0,0.6667,0.0,0.0,0.0,0.0,0.0,0.3333,0.0,2.14,1.0088,0.95,0.4478,4.0,1.8856,True,orthorhombic,mmm,62,10.0409,11.6034,0.5125
Fe2 Si6 Tm6,3,0.0,0.0,0.0,0.0,0.0,0.4286,0.4286,0.0,0.4286,0.1429,-0.1429,0.65,0.3138,0.65,0.301,5.0,2.3733,True,monoclinic,2/m,12,18.9258,8.1084,0.3263
Os8 Si16,2,0.0,0.0,0.0,0.0,0.0,0.0,0.6667,0.0,0.0,0.3333,-1.3333,0.3,0.1414,0.2,0.0943,3.0,1.4142,True,orthorhombic,mmm,64,14.3799,9.4845,0.7902
Ne1,1,0.0,0.0,0.0,0.0,0.0,0.0,0.0,1.0,0.0,0.0,-1000,0.0,0.0,-1000,-1000,0.0,0.0,True,cubic,m-3m,225,19.9299,1.6814,1.0
Au5 Ba1,2,0.0,0.0,0.1667,0.0,0.0,0.0,0.0,0.0,0.0,0.8333,2.8333,1.65,0.6149,0.8,0.2981,0.0,0.0,True,hexagonal,6/mmm,191,23.1739,13.4015,1.3107
Fe8 O23 Sr8,3,0.0,0.0,0.2051,0.5897,0.0,0.0,0.0,0.0,0.0,0.2051,-0.359,2.49,1.047,1.4,0.5742,3.0,1.2707,True,tetragonal,4/mmm,139,12.3581,5.2221,0.8939
H1 Ho1 Se1,3,0.0,0.0,0.0,0.3333,0.0,0.3333,0.0,0.0,0.3333,0.0,0.0,1.32,0.5584,1.5,0.6164,7.0,2.8674,True,hexagonal,-6m2,187,16.4398,8.2455,0.9812
In1 Mg1 Ni2,3,0.0,0.0,0.25,0.0,0.0,0.0,0.0,0.0,0.0,0.5,2.25,0.6,0.2468,0.2,0.0893,2.0,0.7071,True,cubic,m-3m,225,14.7453,7.2217,1.0
Nb2 O4,2,0.0,0.0,0.0,0.6667,0.0,0.0,0.0,0.0,0.0,0.3333,0.3333,1.84,0.8674,0.85,0.4007,3.0,1.4142,True,trigonal,-3m,164,13.5838,5.0896,0.2865
Au16 Ga2 K8,3,0.0,0.3077,0.0,0.0,0.0,0.0,0.0,0.0,0.0,0.6154,2.3846,1.72,0.7801,0.9,0.3951,2.0,0.973,True,monoclinic,2/m,12,26.5272,8.6763,0.5341
Al3 Y1,2,0.0,0.0,0.0,0.0,0.0,0.0,0.0,0.0,0.0,0.25,3.0,0.39,0.1689,0.55,0.2382,2.0,0.866,True,cubic,m-3m,221,19.3576,3.6425,1.0
Ag2 As2 Sr2,3,0.0,0.0,0.3333,0.0,0.0,0.0,0.3333,0.0,0.0,0.3333,-0.0,1.23,0.5308,0.85,0.3472,1.0,0.4714,True,hexagonal,6/mmm,194,25.6178,5.8426,0.5403
Ba8 Ir6 O20,3,0.0,0.0,0.2353,0.5882,0.0,0.0,0.0,0.0,0.0,0.1765,-0.1765,2.55,1.0634,1.55,0.6461,4.0,1.9686,True,monoclinic,2/m,14,15.5944,8.0548,0.436
Rh4 Se8,2,0.0,0.0,0.0,0.6667,0.0,0.0,0.0,0.0,0.0,0.3333,-0.3333,0.27,0.1273,0.2,0.0943,1.0,0.4714,True,cubic,m-3,205,18.9133,7.6333,1.0
Ag2 Cl6 Re1,3,0.0,0.0,0.0,0.0,0.6667,0.0,0.0,0.0,0.0,0.3333,0.0,1.26,0.5846,0.6,0.2529,3.0,1.1331,True,trigonal,-3,148,26.2859,4.3144,1.0
Be26 Dy2,2,0.0,0.0,0.9286,0.0,0.0,0.0714,0.0,0.0,0.0714,0.0,2.0714,0.35,0.0901,0.7,0.1803,6.0,1.5452,True,cubic,m-3m,226,9.4125,3.524,1.0
Ga3 Ni5,2,0.0,0.0,0.0,0.0,0.0,0.0,0.0,0.0,0.0,0.625,2.375,0.1,0.0484,0.05,0.0242,0.0,0.0,True,orthorhombic,mmm,65,11.8986,8.7683,0.7382
O18 Ti10,2,0.0,0.0,0.0,0.6429,0.0,0.0,0.0,0.0,0.0,0.3571,0.1429,1.9,0.9104,0.8,0.3833,2.0,0.9583,True,triclinic,-1,2,10.7995,4.2101,0.6568
Ag2 Mg1 Zn1,3,0.0,0.0,0.25,0.0,0.0,0.0,0.0,0.0,0.0,0.75,1.5,0.62,0.2551,0.25,0.1023,2.0,0.8292,True,cubic,m-3m,225,17.2666,7.3438,1.0
Al7 N3 Nd6 O25 Si5,5,0.0,0.0,0.0,0.5435,0.0,0.1304,0.1087,0.0,0.1304,0.0,-0.8696,2.3,0.9338,1.25,0.4397,6.0,1.9666,True,triclinic,1,1,12.0871,4.8882,0.8072
Al6 C1 Na8 O27 Si6,5,0.0,0.1667,0.0,0.5625,0.0,0.0,0.125,0.0,0.0,0.0,-1.1667,2.51,1.0224,1.2,0.4524,1.0,0.493,True,trigonal,3,146,15.7275,2.1079,1.0
Al1 Si2 Y2,3,0.0,0.0,0.0,0.0,0.0,0.0,0.4,0.0,0.0,0.4,0.2,0.68,0.3048,0.7,0.3231,2.0,0.9798,True,orthorhombic,mmm,71,20.5012,4.2275,0.7253
Cd2 Er1,2,0.0,0.0,0.0,0.0,0.0,0.3333,0.0,0.0,0.3333,0.6667,2.3333,0.45,0.2121,0.2,0.0943,3.0,1.4142,True,hexagonal,6/mmm,191,24.3252,8.9217,1.4485
Nb4 O28 P8,3,0.0,0.0,0.0,0.7,0.0,0.0,0.0,0.0,0.0,0.1,-1.5,1.84,0.6802,0.85,0.2775,3.0,0.922,True,cubic,m-3,205,15.1052,2.9335,1.0
Al4 Cu2 O7,3,0.0,0.0,0.0,0.5385,0.0,0.0,0.0,0.0,0.0,0.1538,0.1538,1.83,0.8691,0.75,0.3422,2.0,0.7378,True,cubic,-43m,216,11.7157,3.7834,1.0
Li4 Mo8 O48 P12,4,0.0,0.0556,0.0,0.6667,0.0,0.0,0.0,0.0,0.0,0.1111,-1.3333,2.46,0.7357,0.85,0.322,3.0,0.9574,True,monoclinic,2/m,14,13.2777,3.361,0.9694
Ge4 Ir4 Tb4,3,0.0,0.0,0.0,0.0,0.0,0.3333,0.3333,0.0,0.3333,0.3333,0.6667,2.2,0.9953,0.5,0.216,4.0,1.633,True,orthorhombic,mmm,62,19.1465,12.2513,0.5722
Au4 Yb1,2,0.0,0.0,0.0,0.0,0.0,0.2,0.0,0.0,0.2,0.8,3.0,2.54,1.016,0.4,0.16,2.0,0.8,True,tetragonal,4/m,87,19.4319,16.4227,0.8336
Na2 O24 P6 Sn4,4,0.0,0.0556,0.0,0.6667,0.0,0.0,0.0,0.0,0.0,0.0,-2.2222,2.51,0.769,1.2,0.3675,3.0,0.9558,True,trigonal,-3,148,13.7385,3.6618,1.0
Li4 O20 P4 V4,4,0.0,0.125,0.0,0.625,0.0,0.0,0.0,0.0,0.0,0.125,-0.875,2.46,0.9408,0.85,0.3437,2.0,0.696,True,orthorhombic,mm2,33,11.5406,3.037,0.6986
Ge2 Nd2 Ru2,3,0.0,0.0,0.0,0.0,0.0,0.3333,0.3333,0.0,0.3333,0.3333,0.6667,1.06,0.4615,0.6,0.2718,4.0,1.6997,True,tetragonal,4/mmm,129,21.4335,8.211,0.6255
Cu2 K2 O4,3,0.0,0.25,0.0,0.5,0.0,0.0,0.0,0.0,0.0,0.25,-0.25,2.62,1.1079,1.6,0.6599,2.0,1.0,True,orthorhombic,mmm,63,18.1275,3.0834,0.7258
Cs12 O14 Si4,3,0.0,0.4,0.0,0.4667,0.0,0.0,0.1333,0.0,0.0,0.0,-1.0667,2.65,1.2346,2.0,0.9393,4.0,1.8785,True,monoclinic,2/m,14,23.0251,4.6425,0.7419
Ge2 Nd1 Ru2,3,0.0,0.0,0.0,0.0,0.0,0.2,0.4,0.0,0.2,0.4,0.2,1.06,0.3952,0.6,0.2311,4.0,1.4697,True,tetragonal,4/mmm,139,18.6853,8.7387,0.7292
Fe2 Ge2 Sm1,3,0.0,0.0,0.0,0.0,0.0,0.2,0.4,0.0,0.2,0.4,-0.2,0.84,0.3106,0.6,0.2205,4.0,1.6,True,tetragonal,4/mmm,139,17.1926,7.8684,0.657
Ir4 S4 Sb4,3,0.0,0.0,0.0,0.0,0.0,0.0,0.3333,0.0,0.0,0.3333,-0.6667,0.53,0.2231,0.45,0.1929,3.0,1.2472,True,orthorhombic,mm2,29,18.9826,10.0902,1.0
F3 K1 Mg1,3,0.0,0.2,0.2,0.0,0.6,0.0,0.0,0.0,0.0,0.0,0.0,3.16,1.4364,1.7,0.6974,2.0,0.8,True,cubic,m-3m,221,13.32,3.0019,1.0
Li5 N2 Na1,3,0.0,0.75,0.0,0.0,0.0,0.0,0.0,0.0,0.0,0.0,0.0,2.11,0.8958,1.15,0.3885,1.0,0.3307,True,tetragonal,4/mmm,123,8.9714,1.983,0.7079
Br2 Mo6 S6,3,0.0,0.0,0.0,0.0,0.1429,0.0,0.0,0.0,0.0,0.4286,0.7143,0.8,0.2836,0.45,0.21,2.0,0.9258,True,trigonal,-3,148,20.0308,5.4941,1.0
Ca4 O12 Ru4,3,0.0,0.0,0.2,0.6,0.0,0.0,0.0,0.0,0.0,0.2,-0.2,2.44,0.978,1.2,0.4915,3.0,1.2649,True,orthorhombic,mmm,62,11.7408,5.3503,0.6986
Ga8 O32 Si8 Sr4,4,0.0,0.0,0.0769,0.6154,0.0,0.0,0.1538,0.0,0.0,0.0,-1.2308,2.49,0.8884,1.4,0.4233,3.0,0.9911,True,monoclinic,2/m,14,14.3685,3.6558,0.8842
Na2 O24 P6 Sn8,4,0.0,0.05,0.0,0.6,0.0,0.0,0.0,0.0,0.0,0.0,-2.4,2.51,0.7852,1.2,0.3955,3.0,1.1662,True,trigonal,3m,161,17.4562,3.723,1.0
Gd4 In2 Pd4,3,0.0,0.0,0.0,0.0,0.0,0.4,0.0,0.0,0.4,0.4,2.6,1.0,0.4484,0.4,0.18,3.0,1.4697,True,tetragonal,4/mmm,127,22.9719,9.2837,0.4892
Ge4 O14 Rb12,3,0.0,0.4,0.0,0.4667,0.0,0.0,0.1333,0.0,0.0,0.0,-1.0667,2.62,1.2182,1.75,0.8139,3.0,1.4079,True,monoclinic,2/m,14,21.3951,3.9846,0.7169
Al2 O8 P2,3,0.0,0.0,0.0,0.6667,0.0,0.0,0.0,0.0,0.0,0.0,-1.3333,1.83,0.745,0.65,0.2578,1.0,0.4714,True,orthorhombic,222,20,15.6885,2.1513,0.7151
Ba1 F6 Ge1,3,0.0,0.0,0.125,0.0,0.75,0.0,0.125,0.0,0.0,0.0,-1.0,3.09,1.1307,1.65,0.5662,4.0,1.3919,True,trigonal,-3m,166,14.6232,4.5984,1.0
Ba4 Cu4 O20 Yb8,4,0.0,0.0,0.1111,0.5556,0.0,0.2222,0.0,0.0,0.2222,0.1111,-0.0,3.44,1.4595,1.55,0.6017,6.0,2.4944,True,orthorhombic,mmm,62,13.4582,8.5952,0.4656
Cs4 Mo6 O24 Se2,4,0.0,0.1111,0.0,0.7222,0.0,0.0,0.0,0.0,0.0,0.1667,-0.6667,2.65,0.887,2.0,0.6527,4.0,1.5446,True,hexagonal,6,173,17.1598,4.433,0.5724
B6 Ru14,2,0.0,0.0,0.0,0.0,0.0,0.0,0.3,0.0,0.0,0.7,3.0,0.16,0.0733,0.45,0.2062,3.0,1.3748,True,hexagonal,6mm,186,11.6432,10.5527,1.5812
Er2 Zn17,2,0.0,0.0,0.0,0.0,0.0,0.1053,0.0,0.0,0.1053,0.8947,2.1053,0.41,0.1258,0.4,0.1228,4.0,1.2276,True,trigonal,-3m,166,16.0482,7.8773,1.0
Cr4 O16 Tl8,3,0.0,0.0,0.0,0.5714,0.0,0.0,0.0,0.0,0.0,0.1429,-0.4286,1.82,0.8942,1.3,0.5817,4.0,1.7613,True,orthorhombic,mmm,62,19.45,6.4002,0.5303
H2,1,0.0,0.0,0.0,0.0,0.0,0.0,0.0,0.0,0.0,0.0,-1.0,0.0,0.0,0.0,0.0,0.0,0.0,True,hexagonal,6/mmm,194,41.8679,0.04,0.6137
Ti1,1,0.0,0.0,0.0,0.0,0.0,0.0,0.0,0.0,0.0,1.0,4.0,0.0,0.0,0.0,0.0,0.0,0.0,True,cubic,m-3m,229,17.1878,4.6245,1.0
C2 Ni1 Pr1,3,0.0,0.0,0.0,0.0,0.0,0.25,0.0,0.0,0.25,0.25,-0.75,1.42,0.5842,1.15,0.4835,6.0,2.4495,True,orthorhombic,mm2,38,13.594,6.829,1.0208
B80 H72 Rb8,3,0.0,0.05,0.0,0.0,0.0,0.0,0.5,0.0,0.0,0.0,1.1,1.38,0.2929,2.1,0.4863,4.0,0.9,True,orthorhombic,mm2,33,11.0654,1.5205,0.3829
Bi2 Te3,2,0.0,0.0,0.0,0.6,0.0,0.0,0.6,0.0,0.0,0.0,0.0,0.08,0.0392,0.2,0.098,1.0,0.4899,True,trigonal,-3m,166,35.6066,7.4688,1.0
Co4 O28 P8,3,0.0,0.0,0.0,0.7,0.0,0.0,0.0,0.0,0.0,0.1,-1.8,1.56,0.6253,0.75,0.2534,2.0,0.6633,True,triclinic,-1,2,12.6808,3.0495,0.4823
La4 O14 Sn4,3,0.0,0.0,0.0,0.6364,0.0,0.1818,0.0,0.0,0.1818,0.1818,-1.4545,2.34,0.9547,1.35,0.5502,6.0,2.3461,True,cubic,m-3m,227,14.3964,6.577,1.0
Ho2 Nb2 O8,3,0.0,0.0,0.0,0.6667,0.0,0.1667,0.0,0.0,0.1667,0.1667,0.0,2.21,0.9606,1.15,0.4793,6.0,2.2913,True,monoclinic,2/m,15,12.5833,7.0784,0.7801
F6 Li1 P1,3,0.0,0.125,0.0,0.0,0.75,0.0,0.0,0.0,0.0,0.0,-1.0,3.0,1.0803,0.95,0.3335,1.0,0.3307,True,trigonal,-3,148,11.6998,2.695,1.0
Cl6 Tb2,2,0.0,0.0,0.0,0.0,0.75,0.25,0.0,0.0,0.25,0.0,0.0,3.16,1.3683,0.75,0.3248,5.0,2.1651,True,orthorhombic,mmm,63,27.1243,4.0602,0.4456
F48 Ti12,2,0.0,0.0,0.0,0.0,0.8,0.0,0.0,0.0,0.0,0.2,0.0,2.44,0.976,0.9,0.36,2.0,0.8,True,orthorhombic,mmm,62,15.1856,2.7088,0.1658
Np4 Si4,2,0.5,0.0,0.0,0.0,0.0,0.0,0.5,0.0,0.5,0.0,0.5,0.54,0.27,0.65,0.325,6.0,3.0,True,orthorhombic,mmm,62,16.7804,13.116,0.2697
Ba2 Ce4 Mn2 S10,4,0.0,0.0,0.1111,0.0,0.0,0.2222,0.0,0.0,0.2222,0.1111,-0.0,1.69,0.7185,1.15,0.4414,5.0,2.0608,True,tetragonal,4/mmm,140,23.4282,4.9837,0.8948
O8 Sr4 Zn4,3,0.0,0.0,0.25,0.5,0.0,0.0,0.0,0.0,0.0,0.25,0.0,2.49,1.0982,1.4,0.5846,3.0,1.299,True,orthorhombic,mmm,62,14.3016,5.3708,0.2946
Cu1 Pt7,2,0.0,0.0,0.0,0.0,0.0,0.0,0.0,0.0,0.0,1.0,2.0,0.38,0.1257,0.0,0.0,2.0,0.6614,True,cubic,m-3m,225,15.2843,19.4082,1.0
Er16 O24,2,0.0,0.0,0.0,0.6,0.0,0.4,0.0,0.0,0.4,0.0,0.0,2.2,1.0778,1.15,0.5634,6.0,2.9394,True,cubic,m-3,206,14.68,8.6537,1.0
Ba4 Sb2,2,0.0,0.0,0.6667,0.0,0.0,0.0,0.3333,0.0,0.0,0.0,0.3333,1.16,0.5468,0.7,0.33,1.0,0.4714,True,tetragonal,4/mmm,139,44.5536,4.9249,0.5178
Nd2 O4,2,0.0,0.0,0.0,0.6667,0.0,0.3333,0.0,0.0,0.3333,0.0,-0.3333,2.3,1.0842,1.25,0.5893,6.0,2.8284,True,monoclinic,2/m,12,14.8127,6.5857,0.6005
I12 K4 Re2,3,0.0,0.2222,0.0,0.0,0.6667,0.0,0.0,0.0,0.0,0.1111,0.0,1.84,0.7571,0.85,0.3359,2.0,0.5666,True,monoclinic,m,7,42.3539,4.4688,0.7001
Ag4 F12 K4,3,0.0,0.2,0.0,0.0,0.6,0.0,0.0,0.0,0.0,0.2,-0.2,3.16,1.3236,1.7,0.7116,3.0,1.2649,True,tetragonal,4/mmm,123,17.0296,3.9776,0.7064
B2 Co3 Ho1,3,0.0,0.0,0.0,0.0,0.0,0.1667,0.3333,0.0,0.1667,0.5,2.5,0.81,0.2755,0.9,0.3162,6.0,2.0,True,hexagonal,6/mmm,191,10.8455,9.272,1.6444
Ge2 K4 Se6,3,0.0,0.3333,0.0,0.5,0.0,0.0,0.1667,0.0,0.0,0.0,-1.3333,1.73,0.7758,1.05,0.4845,0.0,0.0,True,triclinic,-1,2,33.7431,3.18,0.7879
Mg4 Na8 O16 Si4,4,0.0,0.25,0.125,0.5,0.0,0.0,0.125,0.0,0.0,0.0,-1.0,2.51,1.1219,1.2,0.5166,1.0,0.5,True,orthorhombic,mm2,33,13.169,2.5592,0.4835
Li56 N32 Ta8,3,0.0,0.5833,0.0,0.0,0.0,0.0,0.0,0.0,0.0,0.0833,0.0,2.06,0.9509,0.8,0.3771,4.0,1.1055,True,cubic,m-3,205,9.9597,3.9675,1.0
As12 Rb20 Si4,3,0.0,0.5556,0.0,0.0,0.0,0.0,0.4444,0.0,0.0,0.0,-0.8889,1.36,0.6461,1.25,0.6027,2.0,0.6849,True,orthorhombic,mmm,62,36.4223,3.4456,0.3604
K8 S20,2,0.0,0.2857,0.0,0.0,0.0,0.0,0.0,0.0,0.0,0.0,-1.1429,1.76,0.7951,1.2,0.5421,1.0,0.4518,True,orthorhombic,222,19,29.2034,1.9375,0.3536
Ho4 Ru4 Si4,3,0.0,0.0,0.0,0.0,0.0,0.3333,0.3333,0.0,0.3333,0.3333,0.6667,0.97,0.4055,0.65,0.2718,5.0,2.0548,True,orthorhombic,mmm,62,17.8604,9.114,0.6086
C2 Cr2 Li4 O14 P2,5,0.0,0.1667,0.0,0.5833,0.0,0.0,0.0,0.0,0.0,0.0833,-1.3333,2.46,0.9624,0.85,0.3541,2.0,0.5951,True,monoclinic,2/m,11,11.3181,2.7003,0.5924
B2 C1 Ni2 Tm1,4,0.0,0.0,0.0,0.0,0.0,0.1667,0.3333,0.0,0.1667,0.3333,1.5,1.3,0.3807,1.05,0.3702,6.0,2.1344,True,tetragonal,4/mmm,139,10.6567,8.3093,0.6029
O4 Sr2 U1,3,0.1429,0.0,0.2857,0.5714,0.0,0.0,0.0,0.0,0.1429,0.0,0.2857,2.49,1.1689,1.4,0.6561,7.0,2.4744,True,tetragonal,4/mmm,139,18.0154,6.2845,0.6159
Bi6 K18,2,0.0,0.75,0.0,0.0,0.0,0.0,0.0,0.0,0.0,0.0,1.5,1.2,0.5196,0.6,0.2598,2.0,0.866,True,hexagonal,6mm,185,46.7737,2.8958,0.9748
B2 Ni8 Y2,3,0.0,0.0,0.0,0.0,0.0,0.0,0.1667,0.0,0.0,0.8333,2.3333,0.82,0.271,0.95,0.2745,3.0,0.8975,True,hexagonal,6/mmm,191,12.4261,7.4498,0.7158
Al12 Ni4 Y4,3,0.0,0.0,0.0,0.0,0.0,0.0,0.0,0.0,0.0,0.4,2.8,0.69,0.2193,0.55,0.2135,2.0,0.8,True,orthorhombic,mmm,62,17.5913,4.3147,0.3805
P2 S2 U2,3,0.3333,0.0,0.0,0.0,0.0,0.0,0.0,0.0,0.3333,0.0,0.3333,1.2,0.4998,0.75,0.3536,6.0,2.8284,True,tetragonal,4/mmm,129,18.7921,8.8678,0.4725
O3 Sm1 V1,3,0.0,0.0,0.0,0.6,0.0,0.2,0.0,0.0,0.2,0.2,0.4,2.27,1.0099,1.25,0.5148,6.0,2.3324,True,cubic,m-3m,221,11.9459,6.9308,1.0
Au1 K3 O1,3,0.0,0.6,0.0,0.2,0.0,0.0,0.0,0.0,0.0,0.2,0.8,2.62,1.1005,1.6,0.6453,4.0,1.2649,True,cubic,m-3m,221,30.0926,3.6448,1.0
O4 Pb4,2,0.0,0.0,0.0,0.5,0.0,0.0,0.0,0.0,0.0,0.0,0.0,1.11,0.555,1.2,0.6,4.0,2.0,True,orthorhombic,mmm,57,21.2035,8.7399,0.7835
Au2 Nb6,2,0.0,0.0,0.0,0.0,0.0,0.0,0.0,0.0,0.0,1.0,4.5,0.94,0.407,0.1,0.0433,1.0,0.433,True,cubic,m-3m,223,18.1535,10.878,1.0
Eu4 Pd2 Si6,3,0.0,0.0,0.0,0.0,0.0,0.3333,0.5,0.0,0.3333,0.1667,-1.0,2.2,0.937,0.75,0.3354,5.0,2.2361,True,hexagonal,6/mmm,191,21.6532,6.3217,1.9284
Se1 Y1,2,0.0,0.0,0.0,0.5,0.0,0.0,0.0,0.0,0.0,0.5,0.5,1.33,0.665,0.65,0.325,1.0,0.5,True,cubic,m-3m,225,24.1678,5.7669,1.0
Ge6 O18 Ti2 Tl4,4,0.0,0.0,0.0,0.6,0.0,0.0,0.2,0.0,0.0,0.0667,-1.6,1.9,0.8135,1.3,0.4746,4.0,1.436,True,hexagonal,6/m,176,15.2687,5.9347,0.6774
N12 Na12 W4,3,0.0,0.4286,0.0,0.0,0.0,0.0,0.0,0.0,0.0,0.1429,-0.2857,2.11,0.9855,1.15,0.5341,4.0,1.3093,True,monoclinic,m,9,15.7609,4.4375,0.7251
Er1 Ga2,2,0.0,0.0,0.0,0.0,0.0,0.3333,0.0,0.0,0.3333,0.0,3.0,0.57,0.2687,0.45,0.2121,4.0,1.8856,True,hexagonal,6/mmm,191,20.6865,8.2066,1.0323
Na2 P4 S12 Yb2,4,0.0,0.1,0.0,0.0,0.0,0.1,0.0,0.0,0.1,0.0,-1.4,2.58,0.8469,0.8,0.3102,5.0,1.5,True,triclinic,-1,2,25.644,2.9163,0.7415
B2 Ba1 O6 Ti1,4,0.0,0.0,0.1,0.6,0.0,0.0,0.2,0.0,0.0,0.1,0.0,2.55,0.9368,1.55,0.4853,4.0,1.2806,True,trigonal,-3,148,12.5009,4.0224,1.0