formula,numberOfSpecies,fracActinoid,fracAlkali,fracAlkaline,fracChalcogen,fracHalogen,fracLanthanoid,fracMetalloid,fracNobleGas,fracRareEarth,fracTransitionMetal,electronsPerAtom,electronegativityRange,electronegativityStd,radiiRange,radiiStd,rowRange,rowStd,ordered,crystalSystem,pointGroup,spaceGroupNumber,volumePerSite,density,c_a
Al8 Ca12 O48 Si12,4,0.0,0.0,0.15,0.6,0.0,0.0,0.15,0.0,0.0,0.0,-1.2,2.44,0.9876,1.2,0.4397,2.0,0.7399,True,cubic,m-3m,230,10.7165,3.4899,1.0
Cr3 Nb3 Si3,3,0.0,0.0,0.0,0.0,0.0,0.0,0.3333,0.0,0.0,0.6667,1.3333,0.3,0.1296,0.35,0.1546,2.0,0.8165,True,hexagonal,-6m2,189,14.1473,6.7682,2.006
Fe4 Ge8 O28 Tm4,4,0.0,0.0,0.0,0.6364,0.0,0.0909,0.1818,0.0,0.0909,0.0909,-1.5455,2.19,0.8227,1.15,0.4098,6.0,1.7814,True,monoclinic,2/m,12,12.7284,5.7172,0.6731
La5 S8,2,0.0,0.0,0.0,0.0,0.0,0.3846,0.0,0.0,0.3846,0.3846,-0.0769,1.48,0.72,0.95,0.4622,5.0,2.4325,True,tetragonal,-4,82,25.7452,4.7186,1.0
Ge24 Ni24 Sc4,3,0.0,0.0,0.0,0.0,0.0,0.0,0.4615,0.0,0.0,0.5385,-0.6923,0.65,0.1669,0.35,0.0933,0.0,0.0,True,hexagonal,6/mmm,191,13.5922,7.8278,1.305
Nd1,1,0.0,0.0,0.0,0.0,0.0,1.0,0.0,0.0,1.0,0.0,3.0,0.0,0.0,0.0,0.0,0.0,0.0,True,cubic,m-3m,229,35.3079,6.7837,1.0
Ir6 Mo2,2,0.0,0.0,0.0,0.0,0.0,0.0,0.0,0.0,0.0,1.0,3.25,0.04,0.0173,0.1,0.0433,1.0,0.433,True,hexagonal,6/mmm,194,14.731,18.9543,1.254
Ag8 Ho8 S16,3,0.0,0.0,0.0,0.0,0.0,0.25,0.0,0.0,0.25,0.25,0.0,1.35,0.5579,0.75,0.3416,5.0,2.0463,True,monoclinic,2,4,22.9292,6.1001,0.6023
Gd2 Na2 O10 Ti3,4,0.0,0.1176,0.0,0.5882,0.0,0.1176,0.0,0.0,0.1176,0.1765,0.0,2.51,1.0813,1.2,0.5219,6.0,1.917,True,tetragonal,4/mmm,139,12.3557,5.2499,0.2631
Al12 Nd4 O32 Pb8,4,0.0,0.0,0.0,0.5714,0.0,0.0714,0.0,0.0,0.0714,0.0,0.0,2.3,0.8719,1.25,0.4979,6.0,1.8966,True,cubic,m-3m,224,15.9769,5.6984,1.0
Ba1 O6 Sb2,3,0.0,0.0,0.1111,0.6667,0.0,0.0,0.2222,0.0,0.0,0.0,-1.7778,2.55,0.8951,1.55,0.5451,4.0,1.5947,True,trigonal,-3m,162,16.4219,5.3574,0.9181
Co2 Mn1 Sb1,3,0.0,0.0,0.0,0.0,0.0,0.0,0.25,0.0,0.0,0.75,0.75,0.5,0.1812,0.1,0.0415,1.0,0.433,True,cubic,m-3m,225,13.6574,8.9537,1.0
Se2 V2,2,0.0,0.0,0.0,0.5,0.0,0.0,0.0,0.0,0.0,0.5,1.5,0.92,0.46,0.2,0.1,0.0,0.0,True,hexagonal,6/mmm,194,17.8018,6.0586,0.6518
Li12 O48 P12 Sn8,4,0.0,0.15,0.0,0.6,0.0,0.0,0.0,0.0,0.0,0.0,-1.9,2.46,0.93,0.85,0.3611,3.0,0.9206,True,monoclinic,2/m,14,13.1512,3.4291,0.6776
H24 Ni2 O28 Rb4 Se4,5,0.0,0.0645,0.0,0.5161,0.0,0.0,0.0,0.0,0.0,0.0323,-1.2903,2.62,0.7703,2.1,0.5304,4.0,1.164,True,monoclinic,2/m,14,11.9831,2.7877,0.5053
Lu1 S1,2,0.0,0.0,0.0,0.0,0.0,0.5,0.0,0.0,0.5,0.0,0.5,1.31,0.655,0.75,0.375,3.0,1.5,True,cubic,m-3m,225,19.5145,8.8084,1.0
Cu2 K2 Te2,3,0.0,0.3333,0.0,0.3333,0.0,0.0,0.3333,0.0,0.0,0.3333,0.3333,1.28,0.5622,0.85,0.3894,1.0,0.4714,True,hexagonal,6/mmm,194,29.3286,4.3454,0.4403
Gd2 Pd2,2,0.0,0.0,0.0,0.0,0.0,0.5,0.0,0.0,0.5,0.5,2.5,1.0,0.5,0.4,0.2,3.0,1.5,True,orthorhombic,mmm,63,23.2702,9.4076,0.6642
As8 O24 Zn12,3,0.0,0.0,0.0,0.5455,0.0,0.0,0.1818,0.0,0.0,0.2727,-1.0909,1.79,0.805,0.75,0.3401,2.0,0.9959,True,orthorhombic,mmm,55,16.5538,4.0313,0.4296
Na4 O20 P4 V4,4,0.0,0.125,0.0,0.625,0.0,0.0,0.0,0.0,0.0,0.125,-0.875,2.51,0.9527,1.2,0.429,2.0,0.7071,True,monoclinic,2/m,14,11.468,3.3467,0.7766
In4 Na12 O32 P8,4,0.0,0.2143,0.0,0.5714,0.0,0.0,0.0,0.0,0.0,0.0,-1.1429,2.51,1.0358,1.2,0.4999,3.0,0.8207,True,monoclinic,2/m,14,12.3915,3.5773,0.2825
As8 O32 Zn12,3,0.0,0.0,0.0,0.6154,0.0,0.0,0.1538,0.0,0.0,0.2308,-1.2308,1.79,0.7844,0.75,0.3316,2.0,0.973,True,monoclinic,2/m,14,12.9631,4.6713,0.6035
As2 Hg1 O6,3,0.0,0.0,0.0,0.6667,0.0,0.0,0.2222,0.0,0.0,0.1111,-1.8889,1.44,0.6242,0.9,0.3284,4.0,1.3699,True,trigonal,-3m,162,12.0875,6.8144,0.9691
La1 Rh3 Si2,3,0.0,0.0,0.0,0.0,0.0,0.1667,0.3333,0.0,0.1667,0.6667,0.6667,1.18,0.4191,0.85,0.2838,5.0,1.675,True,hexagonal,6/mmm,191,16.9455,8.228,1.532
O26 Si4 Sr3 Ta6,4,0.0,0.0,0.0769,0.6667,0.0,0.0,0.1026,0.0,0.0,0.1538,-0.8205,2.49,0.9377,1.4,0.4512,4.0,1.535,True,hexagonal,-6m2,189,14.0338,5.6944,1.167
Au2 Ge2 Th1,3,0.2,0.0,0.0,0.0,0.0,0.0,0.4,0.0,0.2,0.4,0.4,1.24,0.4564,0.55,0.2049,5.0,1.833,True,tetragonal,4/mmm,139,20.938,12.2332,0.7206
B4 C4 Ce2,3,0.0,0.0,0.0,0.0,0.0,0.2,0.4,0.0,0.2,0.0,0.2,1.43,0.5224,1.15,0.4352,6.0,2.4,True,tetragonal,4/mmm,127,10.87,5.6755,0.6996
As2 Fe2 O2 Sm2,4,0.0,0.0,0.0,0.25,0.0,0.25,0.25,0.0,0.25,0.25,0.0,2.27,0.8258,1.25,0.4514,6.0,2.1794,True,tetragonal,4/mmm,129,18.5773,6.6397,0.4386
I1 Li1,2,0.0,0.5,0.0,0.0,0.5,0.0,0.0,0.0,0.0,0.0,0.0,1.68,0.84,0.05,0.025,3.0,1.5,True,cubic,m-3m,225,27.3484,4.0634,1.0
Br24 C16 La24,3,0.0,0.0,0.0,0.0,0.375,0.375,0.0,0.0,0.375,0.375,-0.25,1.86,0.8363,1.25,0.5054,6.0,2.4495,True,orthorhombic,222,20,27.3828,5.158,0.6041
B2 Ca1 Rh3,3,0.0,0.0,0.1667,0.0,0.0,0.0,0.3333,0.0,0.0,0.5,2.8333,1.28,0.4541,0.95,0.3297,3.0,1.3437,True,hexagonal,6/mmm,191,13.3564,7.6754,1.917
Ge2 Sc2,2,0.0,0.0,0.0,0.0,0.0,0.0,0.5,0.0,0.0,0.5,-0.5,0.65,0.325,0.35,0.175,0.0,0.0,True,orthorhombic,mmm,63,19.3578,5.0438,0.6932
Ca28 Si38,2,0.0,0.0,0.4242,0.0,0.0,0.0,0.5758,0.0,0.0,0.0,-1.4545,0.9,0.4448,0.7,0.346,1.0,0.4942,True,trigonal,-3m,167,22.5511,2.4427,1.0
Cu4 Hf4 Si4,3,0.0,0.0,0.0,0.0,0.0,0.0,0.3333,0.0,0.0,0.6667,0.6667,0.6,0.2828,0.45,0.1841,3.0,1.2472,True,orthorhombic,mmm,62,15.2445,9.8078,0.5334
Cr4 Li4 O28 P8,4,0.0,0.0909,0.0,0.6364,0.0,0.0,0.0,0.0,0.0,0.0909,-1.4545,2.46,0.8642,0.85,0.3215,2.0,0.6428,True,monoclinic,2/m,15,13.7004,2.566,0.7583
Si2 Ti2 Y2,3,0.0,0.0,0.0,0.0,0.0,0.0,0.3333,0.0,0.0,0.6667,1.0,0.68,0.2778,0.7,0.2867,2.0,0.8165,True,tetragonal,4/mmm,129,20.6318,4.4228,0.5315
Cl6 N2 Y4,3,0.0,0.0,0.0,0.0,0.5,0.0,0.0,0.0,0.0,0.3333,0.0,1.94,0.9014,1.15,0.4363,3.0,1.118,True,monoclinic,2/m,12,24.2318,3.4055,0.3964
O3 Sc2,2,0.0,0.0,0.0,0.6,0.0,0.0,0.0,0.0,0.0,0.4,0.0,2.08,1.019,1.0,0.4899,2.0,0.9798,True,trigonal,-3m,164,11.276,4.0618,0.5982
B4 Nd2 Ni5,3,0.0,0.0,0.0,0.0,0.0,0.1818,0.3636,0.0,0.1818,0.4545,2.5455,0.9,0.3246,1.0,0.3579,6.0,2.0889,True,monoclinic,2/m,12,12.4864,7.5585,0.8307
O12 Re4 Sb2,3,0.0,0.0,0.0,0.6667,0.0,0.0,0.1111,0.0,0.0,0.2222,-0.7778,1.54,0.7036,0.85,0.3703,4.0,1.7498,True,monoclinic,2/m,15,12.5279,8.6917,0.5862
Bi1 O2,2,0.0,0.0,0.0,0.6667,0.0,0.0,0.0,0.0,0.0,0.0,-0.3333,1.42,0.6694,1.0,0.4714,4.0,1.8856,True,cubic,m-3m,225,13.9509,9.561,1.0
Ba1 F2,2,0.0,0.0,0.3333,0.0,0.6667,0.0,0.0,0.0,0.0,0.0,0.0,3.09,1.4566,1.65,0.7778,4.0,1.8856,True,cubic,m-3m,225,20.6698,4.695,1.0
Ho2 P10,2,0.0,0.0,0.0,0.0,0.0,0.1667,0.0,0.0,0.1667,0.0,-2.0,0.96,0.3578,0.75,0.2795,5.0,1.8634,True,monoclinic,2/m,11,20.2316,4.3747,0.5253
B6 Re2 U2,3,0.2,0.0,0.0,0.0,0.0,0.0,0.6,0.0,0.2,0.2,3.8,0.66,0.2558,0.9,0.3655,7.0,2.8566,True,hexagonal,6/mmm,194,11.4197,13.2809,0.9904
Be8 F32 H64 N16,4,0.0,0.0,0.0667,0.0,0.2667,0.0,0.0,0.0,0.0,0.0,-1.0667,2.41,0.8178,0.8,0.225,1.0,0.4989,True,orthorhombic,mm2,33,8.2219,1.6303,0.3914
K2 Li14 O14 Zr3,4,0.0,0.4848,0.0,0.4242,0.0,0.0,0.0,0.0,0.0,0.0909,0.0,2.62,1.2017,1.6,0.4978,3.0,0.9515,True,orthorhombic,mmm,71,11.1455,3.0386,0.8849
P2 Pd2 Pr2,3,0.0,0.0,0.0,0.0,0.0,0.3333,0.0,0.0,0.3333,0.3333,0.6667,1.07,0.5021,0.85,0.3472,5.0,2.0548,True,hexagonal,6/mmm,194,20.772,7.4159,0.5364
B6 Ce2 O12,3,0.0,0.0,0.0,0.6,0.0,0.1,0.3,0.0,0.1,0.0,0.0,2.32,0.8373,1.25,0.3674,6.0,1.8,True,monoclinic,2/m,15,10.6379,4.1919,0.9885
Al2 F2 Na2 O8 P2,5,0.0,0.125,0.0,0.5,0.125,0.0,0.0,0.0,0.0,0.0,-1.0,3.05,1.0195,1.3,0.4264,1.0,0.4841,True,monoclinic,2/m,15,10.6563,3.1933,0.7548
Ca6 O18 Si6,3,0.0,0.0,0.2,0.6,0.0,0.0,0.2,0.0,0.0,0.0,-1.6,2.44,1.0156,1.2,0.4716,2.0,0.8,True,triclinic,-1,2,13.6855,2.8189,0.8911
C1 Ce3 In1,3,0.0,0.0,0.0,0.0,0.0,0.6,0.0,0.0,0.6,0.0,1.6,1.43,0.5669,1.15,0.4454,6.0,2.4,True,cubic,m-3m,221,24.9407,7.2862,1.0
Cu3 In3 Nd3,3,0.0,0.0,0.0,0.0,0.0,0.3333,0.0,0.0,0.3333,0.3333,2.6667,0.76,0.3336,0.5,0.2055,4.0,1.6997,True,hexagonal,-6m2,189,22.7884,7.8359,1.853
C2 N2 Th2,3,0.3333,0.0,0.0,0.0,0.0,0.0,0.0,0.0,0.3333,0.0,-1.0,1.74,0.7326,1.15,0.5307,7.0,3.2998,True,monoclinic,2/m,12,17.0583,8.3734,0.54
As4 S16 Tl12,3,0.0,0.0,0.0,0.0,0.0,0.0,0.125,0.0,0.0,0.0,-1.0,0.96,0.4444,0.9,0.4238,3.0,1.3919,True,orthorhombic,mmm,62,30.1744,5.6155,0.8333
Al8 Cr4 Y1,3,0.0,0.0,0.0,0.0,0.0,0.0,0.0,0.0,0.0,0.3846,3.0,0.44,0.1107,0.55,0.1496,2.0,0.6343,True,tetragonal,4/mmm,139,15.4609,4.2361,0.7438
B1 Pd3 Pr1,3,0.0,0.0,0.0,0.0,0.0,0.2,0.2,0.0,0.2,0.6,2.4,1.07,0.4166,1.0,0.3172,6.0,1.8974,True,cubic,m-3m,221,17.0086,9.1963,1.0
Ga1 Ni3,2,0.0,0.0,0.0,0.0,0.0,0.0,0.0,0.0,0.0,0.75,2.25,0.1,0.0433,0.05,0.0217,0.0,0.0,True,cubic,m-3m,221,11.4167,8.9379,1.0
As4 Cu2 Gd2,3,0.0,0.0,0.0,0.0,0.0,0.25,0.5,0.0,0.25,0.25,-0.25,0.98,0.4006,0.65,0.2655,4.0,1.7321,True,tetragonal,4/mmm,129,19.1352,8.041,0.3958
Pt4 Pu2,2,0.3333,0.0,0.0,0.0,0.0,0.0,0.0,0.0,0.3333,0.6667,2.6667,1.0,0.4714,0.4,0.1886,3.0,1.4142,True,cubic,m-3m,227,18.6879,18.7833,1.0
Ir8 Sn12 Te12,3,0.0,0.0,0.0,0.375,0.0,0.0,0.375,0.0,0.0,0.25,-1.5,0.24,0.0954,0.1,0.039,1.0,0.433,True,trigonal,-3,148,26.5867,8.7703,1.0
Ca6 Ir2 Na2 O12,4,0.0,0.0909,0.2727,0.5455,0.0,0.0,0.0,0.0,0.0,0.0909,-0.1818,2.51,1.1504,1.2,0.5659,4.0,1.2792,True,trigonal,-3m,167,12.8687,5.061,1.0
Li1 Mg2 Tl1,3,0.0,0.25,0.5,0.0,0.0,0.0,0.0,0.0,0.0,0.0,1.5,0.64,0.2263,0.45,0.1816,4.0,1.5,True,cubic,m-3m,225,21.4831,5.0229,1.0
Cu18 Mg4 Nd2,3,0.0,0.0,0.1667,0.0,0.0,0.0833,0.0,0.0,0.0833,0.75,2.0833,0.76,0.2829,0.5,0.1419,5.0,1.2134,True,hexagonal,6/mmm,194,14.8823,7.1109,0.3123
Mg8 Tb4,2,0.0,0.0,0.6667,0.0,0.0,0.3333,0.0,0.0,0.3333,0.0,2.3333,1.31,0.6175,0.25,0.1179,5.0,2.357,True,hexagonal,6/mmm,194,26.0956,4.402,0.6194
H2 K2 O6 Se2,4,0.0,0.1667,0.0,0.6667,0.0,0.0,0.0,0.0,0.0,0.0,-1.3333,2.62,0.9516,1.95,0.6384,3.0,1.118,True,triclinic,-1,2,15.422,2.9981,0.7629
Ba6 O18 Ru4 Y2,4,0.0,0.0,0.2,0.6,0.0,0.0,0.0,0.0,0.0,0.2,-0.2,2.55,1.0753,1.55,0.6389,4.0,1.7436,True,hexagonal,6/mmm,194,14.9996,6.2513,0.4079
Al4 Pr2,2,0.0,0.0,0.0,0.0,0.0,0.3333,0.0,0.0,0.3333,0.0,3.0,0.48,0.2263,0.6,0.2828,5.0,2.357,True,cubic,m-3m,227,22.0637,4.8887,1.0
Cl32 Ge12,2,0.0,0.0,0.0,0.0,0.7273,0.0,0.2727,0.0,0.0,0.0,-1.8182,1.15,0.5122,0.25,0.1113,1.0,0.4454,True,cubic,-43m,219,35.9568,2.1056,1.0
P2 Yb1 Zn2,3,0.0,0.0,0.0,0.0,0.0,0.2,0.0,0.0,0.2,0.4,0.2,2.19,0.8051,0.75,0.2782,5.0,1.8547,True,trigonal,-3m,164,19.061,6.3736,0.5964
B16 U4,2,0.2,0.0,0.0,0.0,0.0,0.0,0.8,0.0,0.2,0.0,3.6,0.66,0.264,0.9,0.36,7.0,2.8,True,tetragonal,4/mmm,127,9.7442,9.5865,0.5624
Ni16 Si7 Ti6,3,0.0,0.0,0.0,0.0,0.0,0.0,0.2414,0.0,0.0,0.7586,0.9655,0.37,0.1487,0.3,0.1145,1.0,0.4279,True,cubic,m-3m,225,12.0209,6.7778,1.0
Cu2 Si2 Y2,3,0.0,0.0,0.0,0.0,0.0,0.0,0.3333,0.0,0.0,0.6667,0.3333,0.68,0.3206,0.7,0.2896,2.0,0.8165,True,hexagonal,6/mmm,194,18.6603,5.3552,0.5518
As6 Ir7 Mg4,3,0.0,0.0,0.2353,0.0,0.0,0.0,0.3529,0.0,0.0,0.4118,0.6471,0.89,0.3737,0.35,0.1348,3.0,1.2395,True,cubic,m-3m,229,16.1433,11.4496,1.0
As4 B8 Cl8,3,0.0,0.0,0.0,0.0,0.4,0.0,0.6,0.0,0.0,0.0,0.2,1.12,0.5283,0.3,0.1122,2.0,0.7483,True,triclinic,-1,2,27.3083,2.0364,0.6456
Ho1 Rb1 Se2,3,0.0,0.25,0.0,0.5,0.0,0.25,0.0,0.0,0.25,0.0,0.0,1.73,0.7762,1.2,0.4975,4.0,1.6394,True,trigonal,-3m,166,30.9461,5.4775,1.0
Cd1 Pt2 Zn1,3,0.0,0.0,0.0,0.0,0.0,0.0,0.0,0.0,0.0,1.0,2.0,0.63,0.3053,0.2,0.0866,2.0,0.8292,True,tetragonal,4/mmm,123,16.1172,14.6298,0.3999
H24 N8 O16 S4,4,0.0,0.0,0.0,0.3077,0.0,0.0,0.0,0.0,0.0,0.0,-1.6923,1.24,0.5488,0.75,0.2326,2.0,0.6249,True,orthorhombic,222,19,8.4295,1.9718,0.624
B2 Re6,2,0.0,0.0,0.0,0.0,0.0,0.0,0.25,0.0,0.0,0.75,3.75,0.14,0.0606,0.5,0.2165,4.0,1.7321,True,orthorhombic,mmm,63,12.6178,18.7348,0.3952
Li1 N1 Na2,3,0.0,0.75,0.0,0.0,0.0,0.0,0.0,0.0,0.0,0.0,0.0,2.11,0.9067,1.15,0.4697,1.0,0.5,True,hexagonal,6/mmm,191,16.8736,1.6466,1.1589
Ga3 Mg3 Nd3,3,0.0,0.0,0.3333,0.0,0.0,0.3333,0.0,0.0,0.3333,0.0,2.6667,0.67,0.2844,0.55,0.2273,5.0,2.1602,True,hexagonal,-6m2,189,24.4694,5.3898,1.6479
C2 Li6 O14 P2 V2,5,0.0,0.2308,0.0,0.5385,0.0,0.0,0.0,0.0,0.0,0.0769,-1.0,2.46,1.0344,0.85,0.371,2.0,0.5756,True,monoclinic,2/m,11,10.7832,2.6859,0.5865
Cd2 Sb4 Sn2,3,0.0,0.0,0.0,0.0,0.0,0.0,0.5,0.0,0.0,0.25,-2.0,0.36,0.1475,0.1,0.0433,0.0,0.0,True,tetragonal,-42m,122,36.2455,5.4363,0.8227
La4 Ni3 O10,3,0.0,0.0,0.0,0.5882,0.0,0.2353,0.0,0.0,0.2353,0.4118,-0.1176,2.34,1.014,1.35,0.5706,6.0,2.4622,True,monoclinic,m,8,12.3556,7.0494,0.2714
Bi8 Th6,2,0.4286,0.0,0.0,0.0,0.0,0.0,0.0,0.0,0.4286,0.0,3.4286,0.72,0.3563,0.2,0.099,3.0,1.4846,True,cubic,-43m,220,32.3312,11.2408,1.0
Co2 Si2 Th1,3,0.2,0.0,0.0,0.0,0.0,0.0,0.4,0.0,0.2,0.4,0.0,0.6,0.2362,0.7,0.2557,6.0,2.245,True,tetragonal,4/mmm,139,15.7448,8.5654,0.7202
Ba2 Na1 O6 Re1,4,0.0,0.1,0.2,0.6,0.0,0.0,0.0,0.0,0.0,0.1,-0.3,2.55,1.1534,1.55,0.6525,4.0,1.7916,True,cubic,m-3m,225,14.9306,6.4489,1.0
H1 Rh1,2,0.0,0.0,0.0,0.0,0.0,0.0,0.0,0.0,0.0,0.5,1.0,0.08,0.04,1.1,0.55,4.0,2.0,True,cubic,m-3m,225,8.3594,10.3208,1.0
Bi16 Cl4 Nb4 O32,4,0.0,0.0,0.0,0.5714,0.0714,0.0,0.0,0.0,0.0,0.0714,0.0,1.84,0.7163,1.0,0.4562,4.0,1.8014,True,orthorhombic,mm2,33,16.3586,7.9197,0.1895
F18 Pr6,2,0.0,0.0,0.0,0.0,0.75,0.25,0.0,0.0,0.25,0.0,0.0,2.85,1.2341,1.35,0.5846,6.0,2.5981,True,trigonal,-3m,165,13.5169,6.0781,0.9744
Ag8 Ca19 N7,3,0.0,0.0,0.5588,0.0,0.0,0.0,0.0,0.0,0.0,0.2353,0.7353,2.04,0.8076,1.15,0.4485,3.0,1.0137,True,cubic,m-3m,225,22.8259,3.6855,1.0
Cu16 Eu6 Sn8,3,0.0,0.0,0.0,0.0,0.0,0.2,0.0,0.0,0.2,0.5333,0.4,1.96,0.7684,0.5,0.1914,4.0,1.5261,True,hexagonal,6mm,186,19.2737,8.2658,1.1799
Au1 Mg1 Sn1,3,0.0,0.0,0.3333,0.0,0.0,0.0,0.0,0.0,0.0,0.3333,0.3333,1.23,0.5024,0.15,0.0624,3.0,1.2472,True,cubic,-43m,216,23.1273,8.1369,1.0
La2 O3,2,0.0,0.0,0.0,0.6,0.0,0.4,0.0,0.0,0.4,0.4,0.0,2.34,1.1464,1.35,0.6614,6.0,2.9394,True,trigonal,-3m,164,16.6034,6.517,0.6372
Ge4 Pr4,2,0.0,0.0,0.0,0.0,0.0,0.5,0.5,0.0,0.5,0.0,-0.5,0.88,0.44,0.6,0.3,4.0,2.0,True,orthorhombic,mmm,62,25.9819,6.8241,0.4875
Cu4 O24 P8,3,0.0,0.0,0.0,0.6667,0.0,0.0,0.0,0.0,0.0,0.1111,-1.7778,1.54,0.6397,0.75,0.2615,2.0,0.6849,True,monoclinic,2/m,15,12.5621,3.2531,0.8044
K12 Nb4 Se16,3,0.0,0.375,0.0,0.5,0.0,0.0,0.0,0.0,0.0,0.125,0.0,1.73,0.8038,1.05,0.4886,1.0,0.3307,True,orthorhombic,mmm,62,34.3167,3.1818,0.8615
Ca2 H12 O14 P4,4,0.0,0.0,0.0625,0.4375,0.0,0.0,0.0,0.0,0.0,0.0,-1.5,2.44,0.7385,1.55,0.3948,3.0,0.857,True,triclinic,-1,2,11.4951,1.9869,0.8378
As8 Co4,2,0.0,0.0,0.0,0.0,0.0,0.0,0.6667,0.0,0.0,0.3333,-1.3333,0.3,0.1414,0.2,0.0943,0.0,0.0,True,monoclinic,2/m,14,15.7047,7.3583,0.9829
Cr4 O32 P10,3,0.0,0.0,0.0,0.6957,0.0,0.0,0.0,0.0,0.0,0.087,-1.7826,1.78,0.6582,0.8,0.2568,2.0,0.6419,True,monoclinic,2/m,13,14.1633,2.6245,3.7263
Mn2 Sb10 U6,3,0.3333,0.0,0.0,0.0,0.0,0.0,0.5556,0.0,0.3333,0.1111,0.5556,0.67,0.3156,0.35,0.1461,5.0,1.9876,True,hexagonal,6/mmm,193,23.6429,10.7522,1.4699
F12 Pb4,2,0.0,0.0,0.0,0.0,0.75,0.0,0.0,0.0,0.0,0.0,-0.25,1.65,0.7145,1.3,0.5629,4.0,1.7321,True,tetragonal,-42m,116,16.6851,6.5733,0.5844
Ge1 Mn1 Ni2,3,0.0,0.0,0.0,0.0,0.0,0.0,0.25,0.0,0.0,0.75,0.5,0.46,0.1751,0.15,0.0545,0.0,0.0,True,cubic,m-3m,225,12.1901,8.3423,1.0
Co4 Lu2,2,0.0,0.0,0.0,0.0,0.0,0.3333,0.0,0.0,0.3333,0.6667,2.3333,0.61,0.2876,0.4,0.1886,2.0,0.9428,True,cubic,m-3m,227,14.7529,10.9868,1.0
Si2 W1,2,0.0,0.0,0.0,0.0,0.0,0.0,0.6667,0.0,0.0,0.3333,-1.3333,0.46,0.2168,0.25,0.1179,3.0,1.4142,True,tetragonal,4/mmm,139,13.7102,9.6898,0.7107
Ca1 Si2 Zn2,3,0.0,0.0,0.2,0.0,0.0,0.0,0.4,0.0,0.0,0.4,-0.4,0.9,0.3295,0.7,0.2557,1.0,0.4899,True,tetragonal,4/mmm,139,18.3747,4.1041,0.7194
Cl2 H12 Li2 O14,4,0.0,0.0667,0.0,0.4667,0.0667,0.0,0.0,0.0,0.0,0.0,-1.3333,2.46,0.7504,1.2,0.3235,2.0,0.5963,True,hexagonal,6mm,186,9.6707,1.8366,1.3782
Au2 Se2,2,0.0,0.0,0.0,0.5,0.0,0.0,0.0,0.0,0.0,0.5,0.5,0.01,0.005,0.2,0.1,2.0,1.0,True,hexagonal,6/mmm,194,21.6976,10.5585,0.7142
F4 Hg6 S4,3,0.0,0.0,0.0,0.0,0.2857,0.0,0.0,0.0,0.0,0.4286,-0.4286,1.98,0.8254,1.0,0.4165,4.0,1.7728,True,cubic,23,199,21.1705,7.8873,1.0
C24 Mo4 O24,3,0.0,0.0,0.0,0.4615,0.0,0.0,0.0,0.0,0.0,0.0769,-2.4615,1.28,0.482,0.85,0.2185,3.0,0.7994,True,orthorhombic,mmm,62,19.3348,1.7441,0.5391
Pd4 Sb4 Zr4,3,0.0,0.0,0.0,0.0,0.0,0.0,0.3333,0.0,0.0,0.6667,1.0,0.87,0.3797,0.15,0.0624,0.0,0.0,True,orthorhombic,mmm,62,20.0539,8.816,0.5403
F8 Mg4,2,0.0,0.0,0.3333,0.0,0.6667,0.0,0.0,0.0,0.0,0.0,0.0,2.67,1.2587,1.0,0.4714,1.0,0.4714,True,cubic,m-3,205,10.494,3.2862,1.0
H6 U2,2,0.25,0.0,0.0,0.0,0.0,0.0,0.0,0.0,0.25,0.0,0.75,0.82,0.3551,1.5,0.6495,8.0,3.4641,True,cubic,m-3m,223,8.8324,11.3298,1.0
Ac2 Br6,2,0.25,0.0,0.0,0.0,0.75,0.0,0.0,0.0,0.25,0.25,0.0,1.86,0.8054,0.8,0.3464,5.0,2.1651,True,hexagonal,6/m,176,34.7831,5.5702,1.7486
Hg2 U1,2,0.3333,0.0,0.0,0.0,0.0,0.0,0.0,0.0,0.3333,0.6667,2.6667,0.62,0.2923,0.25,0.1179,3.0,1.4142,True,hexagonal,6/mmm,191,23.526,15.0391,1.7093
C1 Dy2 N2 O2,4,0.0,0.0,0.0,0.2857,0.0,0.2857,0.0,0.0,0.2857,0.0,-1.1429,2.22,0.8945,1.15,0.5024,6.0,2.7105,True,trigonal,-3m,164,14.169,6.647,0.4556
Sb2 Te3,2,0.0,0.0,0.0,0.6,0.0,0.0,1.0,0.0,0.0,0.0,-2.4,0.05,0.0245,0.05,0.0245,0.0,0.0,True,trigonal,-3m,166,33.9787,6.1217,1.0
O18 Te3 Tl6,3,0.0,0.0,0.0,0.7778,0.0,0.0,0.1111,0.0,0.0,0.0,-1.3333,1.82,0.7934,1.3,0.5513,4.0,1.7498,True,trigonal,32,150,14.0731,8.2905,1.8237
B3 C2 Y2,3,0.0,0.0,0.0,0.0,0.0,0.0,0.4286,0.0,0.0,0.2857,1.0,1.33,0.5085,1.1,0.4605,3.0,1.3553,True,orthorhombic,mmm,65,12.1715,4.5658,0.4799
Ni5 U1,2,0.1667,0.0,0.0,0.0,0.0,0.0,0.0,0.0,0.1667,0.8333,2.6667,0.53,0.1975,0.4,0.1491,5.0,1.8634,True,cubic,-43m,216,12.8358,11.4597,1.0
Cl4,1,0.0,0.0,0.0,0.0,1.0,0.0,0.0,0.0,0.0,0.0,-1.0,0.0,0.0,0.0,0.0,0.0,0.0,True,orthorhombic,mmm,64,34.9016,1.6868,0.5167
P6 Sm2 Zn6,3,0.0,0.0,0.0,0.0,0.0,0.1429,0.0,0.0,0.1429,0.4286,0.0,1.02,0.3624,0.85,0.2864,5.0,1.6413,True,hexagonal,6/mmm,194,20.1394,5.1769,0.2016
Au2 Ge2 Sr1,3,0.0,0.0,0.2,0.0,0.0,0.0,0.4,0.0,0.0,0.4,0.0,1.59,0.5806,0.75,0.2835,2.0,0.8944,True,tetragonal,4/mmm,139,22.3087,9.3316,0.7457
Ag2 La2 Pb2,3,0.0,0.0,0.0,0.0,0.0,0.3333,0.0,0.0,0.3333,0.6667,2.0,1.23,0.5123,0.35,0.1434,3.0,1.2472,True,hexagonal,6mm,186,28.0773,8.9496,0.6257
Na8 S20,2,0.0,0.2857,0.0,0.0,0.0,0.0,0.0,0.0,0.0,0.0,-1.1429,1.65,0.7454,0.8,0.3614,0.0,0.0,True,orthorhombic,mmm,62,24.3438,2.0103,0.401
Ga2 Ti4,2,0.0,0.0,0.0,0.0,0.0,0.0,0.0,0.0,0.0,0.6667,3.6667,0.27,0.1273,0.1,0.0471,0.0,0.0,True,hexagonal,6/mmm,194,16.2103,5.6497,0.829
Er12 F12 Se12,3,0.0,0.0,0.0,0.3333,0.3333,0.3333,0.0,0.0,0.3333,0.0,0.0,2.74,1.119,1.25,0.5104,6.0,2.4944,True,orthorhombic,mmm,62,21.2981,6.8927,0.2161
Ca8 Fe8 O20,3,0.0,0.0,0.2222,0.5556,0.0,0.0,0.0,0.0,0.0,0.2222,-0.2222,2.44,1.0436,1.2,0.5145,2.0,0.9938,True,orthorhombic,mmm,62,12.9476,3.8738,0.3723
As8 Cu16 O36,3,0.0,0.0,0.0,0.6,0.0,0.0,0.1333,0.0,0.0,0.2667,-1.0667,1.54,0.7136,0.75,0.34,2.0,0.9798,True,orthorhombic,mmm,62,12.7349,4.7639,0.4624
Al48 O144 Sr72,3,0.0,0.0,0.2727,0.5455,0.0,0.0,0.0,0.0,0.0,0.0,0.0,2.49,1.1296,1.4,0.6011,3.0,1.2792,True,cubic,m-3,205,15.5149,4.0167,1.0
Co2 O12 Sb4,3,0.0,0.0,0.0,0.6667,0.0,0.0,0.2222,0.0,0.0,0.1111,-1.7778,1.56,0.6835,0.85,0.3859,3.0,1.2862,True,tetragonal,4/mmm,136,11.706,6.2802,0.5016
As32 Ba32 Ti8,3,0.0,0.0,0.4444,0.0,0.0,0.0,0.4444,0.0,0.0,0.1111,0.0,1.29,0.6081,1.0,0.4779,2.0,0.9938,True,cubic,-43m,218,34.9871,4.7296,1.0
Ag2 S4 Yb2,3,0.0,0.0,0.0,0.0,0.0,0.25,0.0,0.0,0.25,0.25,0.0,2.58,1.0572,0.75,0.3416,5.0,2.0463,True,tetragonal,4/mmm,141,20.8093,6.8833,0.831
As2 Np2 S2,3,0.3333,0.0,0.0,0.0,0.0,0.0,0.3333,0.0,0.3333,0.0,0.0,1.22,0.5078,0.75,0.324,6.0,2.6247,True,tetragonal,4/mmm,129,20.2525,9.4014,0.4744
Ge8 Se20 Sr8,3,0.0,0.0,0.2222,0.5556,0.0,0.0,0.2222,0.0,0.0,0.0,-1.5556,1.6,0.6384,0.85,0.3438,1.0,0.4157,True,monoclinic,2/m,14,27.7283,4.7597,0.6902
Fe4 Ge4,2,0.0,0.0,0.0,0.0,0.0,0.0,0.5,0.0,0.0,0.5,-1.0,0.18,0.09,0.15,0.075,0.0,0.0,True,monoclinic,2/m,12,13.8172,7.7206,0.6272
Mn2 Nd2 O2 P2,4,0.0,0.0,0.0,0.25,0.0,0.25,0.0,0.0,0.25,0.25,0.0,2.3,0.8698,1.25,0.4642,6.0,2.2776,True,tetragonal,4/mmm,129,18.7613,5.4467,0.4607
B2 Ho2 Ni8,3,0.0,0.0,0.0,0.0,0.0,0.1667,0.1667,0.0,0.1667,0.6667,2.3333,0.81,0.2674,0.9,0.2609,6.0,1.7951,True,hexagonal,6/mmm,191,12.2977,9.2385,0.7126
Ce2 S8 Sm4,3,0.0,0.0,0.0,0.0,0.0,0.4286,0.0,0.0,0.4286,0.0,0.1429,1.46,0.7062,0.85,0.4206,5.0,2.4744,True,tetragonal,-42m,122,22.0633,6.1188,1.0