formula,numberOfSpecies,fracActinoid,fracAlkali,fracAlkaline,fracChalcogen,fracHalogen,fracLanthanoid,fracMetalloid,fracNobleGas,fracRareEarth,fracTransitionMetal,electronsPerAtom,electronegativityRange,electronegativityStd,radiiRange,radiiStd,rowRange,rowStd,ordered,crystalSystem,pointGroup,spaceGroupNumber,volumePerSite,density,c_a
C2 Lu1,2,0.0,0.0,0.0,0.0,0.0,0.3333,0.0,0.0,0.3333,0.0,-1.6667,1.28,0.6034,1.05,0.495,4.0,1.8856,True,tetragonal,4/mmm,139,12.8384,8.5791,0.9048
Hg1 Te1,2,0.0,0.0,0.0,0.5,0.0,0.0,0.5,0.0,0.0,0.5,-0.5,0.1,0.05,0.1,0.05,1.0,0.5,True,cubic,-43m,216,36.9326,7.3779,1.0
Co6 Sb8 Th6,3,0.3,0.0,0.0,0.0,0.0,0.0,0.4,0.0,0.3,0.3,0.6,0.75,0.3182,0.45,0.1847,5.0,2.0712,True,cubic,-43m,220,22.1557,10.1927,1.0
N2 Na2 O6,3,0.0,0.2,0.0,0.6,0.0,0.0,0.0,0.0,0.0,0.0,-1.6,2.51,0.9764,1.2,0.4754,1.0,0.4,True,trigonal,-3m,167,13.1076,2.1535,1.0
As8 O40 Sr4 V8,4,0.0,0.0,0.0667,0.6667,0.0,0.0,0.1333,0.0,0.0,0.1333,-0.9333,2.49,0.8549,1.4,0.4182,3.0,1.0625,True,orthorhombic,222,19,13.7352,4.0246,0.3868
As2 Mn2 Na2,3,0.0,0.3333,0.0,0.0,0.0,0.0,0.3333,0.0,0.0,0.3333,0.0,1.25,0.5103,0.65,0.2677,1.0,0.4714,True,tetragonal,4/mmm,129,19.9325,4.2445,0.5902
Ca2 Cl2 H2,3,0.0,0.0,0.3333,0.0,0.3333,0.0,0.0,0.0,0.0,0.0,0.0,2.16,0.8836,1.55,0.6329,3.0,1.2472,True,tetragonal,4/mmm,129,17.013,2.4902,0.5533
Ho1 Os2 Si2,3,0.0,0.0,0.0,0.0,0.0,0.2,0.4,0.0,0.2,0.4,0.6,0.97,0.3544,0.65,0.2375,5.0,1.9391,True,tetragonal,4/mmm,139,16.7996,11.8921,0.7384
Mn1 Na6 O18 Si6 Ti1,5,0.0,0.1875,0.0,0.5625,0.0,0.0,0.1875,0.0,0.0,0.0625,-1.5,2.51,1.0391,1.2,0.47,2.0,0.6124,True,trigonal,3m,160,12.3611,2.927,1.0
F34 Lu6 Sr8,3,0.0,0.0,0.1667,0.0,0.7083,0.125,0.0,0.0,0.125,0.0,-0.0,3.03,1.3177,1.5,0.6366,4.0,1.5811,True,triclinic,1,1,13.477,6.1522,1.0055
As3 Na3 Sr3,3,0.0,0.3333,0.3333,0.0,0.0,0.0,0.3333,0.0,0.0,0.0,-0.0,1.25,0.5846,0.85,0.3629,2.0,0.8165,True,hexagonal,-6m2,189,27.6624,3.7124,1.7099
Ge2 Li4 O10 V2,4,0.0,0.2222,0.0,0.5556,0.0,0.0,0.1111,0.0,0.0,0.1111,-0.7778,2.46,1.0555,0.85,0.389,2.0,0.8315,True,tetragonal,4/mmm,129,11.1453,3.5999,0.6983
Li28 Si8,2,0.0,0.7778,0.0,0.0,0.0,0.0,0.2222,0.0,0.0,0.0,-0.1111,0.92,0.3825,0.35,0.1455,1.0,0.4157,True,orthorhombic,mmm,55,14.9016,1.2971,0.2989
O14 Sm4 Zr4,3,0.0,0.0,0.0,0.6364,0.0,0.1818,0.0,0.0,0.1818,0.1818,0.0,2.27,1.0546,1.25,0.5368,6.0,2.3461,True,cubic,m-3m,227,13.9953,6.4196,1.0
Lu1 Ni5,2,0.0,0.0,0.0,0.0,0.0,0.1667,0.0,0.0,0.1667,0.8333,2.1667,0.64,0.2385,0.4,0.1491,2.0,0.7454,True,hexagonal,6/mmm,191,13.2018,9.82,1.2166
Ca2 O12 Sr4 W2,4,0.0,0.0,0.3,0.6,0.0,0.0,0.0,0.0,0.0,0.1,-0.2,2.49,1.1088,1.4,0.6055,4.0,1.5362,True,orthorhombic,mmm,59,14.914,5.5131,0.6979
Ge2 Na4 O6,3,0.0,0.3333,0.0,0.5,0.0,0.0,0.1667,0.0,0.0,0.0,-1.3333,2.51,1.1337,1.2,0.5404,2.0,0.7454,True,orthorhombic,mm2,36,14.4151,3.1989,0.7905
Ga8 Na16 S20,3,0.0,0.3636,0.0,0.0,0.0,0.0,0.0,0.0,0.0,0.0,0.0,1.65,0.7418,0.8,0.3602,1.0,0.3857,True,monoclinic,2/m,14,22.724,2.6023,0.3072
Ni8 O4 Zr16,3,0.0,0.0,0.0,0.1429,0.0,0.0,0.0,0.0,0.0,0.8571,2.5714,2.11,0.7169,0.95,0.3212,3.0,1.0302,True,cubic,m-3m,227,16.8668,7.008,1.0
Dy1 K1 S2,3,0.0,0.25,0.0,0.0,0.0,0.25,0.0,0.0,0.25,0.0,0.0,1.76,0.7927,1.2,0.5128,5.0,2.0616,True,trigonal,-3m,166,26.2107,4.2087,1.0
As4 F16 K4 O4,4,0.0,0.1429,0.0,0.1429,0.5714,0.0,0.1429,0.0,0.0,0.0,-1.1429,3.16,1.1462,1.7,0.5934,2.0,0.9035,True,monoclinic,2/m,14,15.6935,3.1141,0.3948
Te12 Th7,2,0.3684,0.0,0.0,0.6316,0.0,0.0,0.6316,0.0,0.3684,0.0,0.2105,0.8,0.3859,0.4,0.193,4.0,1.9295,True,hexagonal,-6,174,31.4293,8.7745,2.8893
Cu4 O8 Sm2,3,0.0,0.0,0.0,0.5714,0.0,0.1429,0.0,0.0,0.1429,0.2857,-0.1429,2.27,0.9108,1.25,0.4792,6.0,2.0603,True,monoclinic,2/m,15,11.6211,6.97,0.9114
Ba6 O18 Pr2 Ru4,4,0.0,0.0,0.2,0.6,0.0,0.0667,0.0,0.0,0.0667,0.1333,-0.2,2.55,1.0833,1.55,0.6428,6.0,2.0591,True,hexagonal,6/mmm,194,15.6946,6.3413,0.4005
Na10 Sn12 Sr1,3,0.0,0.4348,0.0435,0.0,0.0,0.0,0.0,0.0,0.0,0.0,-1.5652,1.03,0.5136,0.55,0.1882,2.0,0.9915,True,cubic,-43m,217,31.8377,3.9504,1.0
B8 H32 Li8 O32,4,0.0,0.1,0.0,0.4,0.0,0.0,0.1,0.0,0.0,0.0,-0.8,2.46,0.7989,1.2,0.3558,1.0,0.4899,True,orthorhombic,mmm,61,7.8455,1.8156,0.8466
Nb2 Sb4,2,0.0,0.0,0.0,0.0,0.0,0.0,0.6667,0.0,0.0,0.3333,-0.3333,0.45,0.2121,0.0,0.0,0.0,0.0,True,monoclinic,2/m,12,23.1426,8.0465,0.4844
Au2 Ca1 Si2,3,0.0,0.0,0.2,0.0,0.0,0.0,0.4,0.0,0.0,0.4,0.0,1.54,0.5657,0.7,0.2557,3.0,1.3565,True,tetragonal,4/mmm,139,19.3698,8.4045,0.7391
Ga2 Mn3 Si1 Tb3,4,0.0,0.0,0.0,0.0,0.0,0.3333,0.1111,0.0,0.3333,0.3333,1.8889,1.9,0.8081,0.65,0.2221,5.0,1.9876,True,hexagonal,-6m2,189,19.3854,7.701,1.8198
Li40 O32 Tl8,3,0.0,0.5,0.0,0.4,0.0,0.0,0.0,0.0,0.0,0.0,-0.2,2.46,1.1676,1.3,0.4714,4.0,1.2,True,tetragonal,4/mmm,137,10.7867,4.6658,0.3569
O22 Sm4 Te8,3,0.0,0.0,0.0,0.8824,0.0,0.1176,0.2353,0.0,0.1176,0.0,-1.4118,2.27,0.8304,1.25,0.4712,6.0,2.088,True,monoclinic,2/m,15,15.6877,6.1462,0.321
Cu12 Na36 O36,3,0.0,0.4286,0.0,0.4286,0.0,0.0,0.0,0.0,0.0,0.1429,-0.1429,2.51,1.1662,1.2,0.558,2.0,0.6999,True,orthorhombic,mmm,64,13.2225,3.2385,0.4986
Hg1 Ti3,2,0.0,0.0,0.0,0.0,0.0,0.0,0.0,0.0,0.0,1.0,3.25,0.46,0.1992,0.1,0.0433,2.0,0.866,True,cubic,m-3m,221,17.7388,8.055,1.0
Mg1 O6 Re1 Sr2,4,0.0,0.0,0.3,0.6,0.0,0.0,0.0,0.0,0.0,0.1,-0.2,2.49,1.0875,1.4,0.5755,4.0,1.5133,True,cubic,m-3m,225,12.7031,6.2974,1.0
Bi1 Er1 Pt1,3,0.0,0.0,0.0,0.0,0.0,0.3333,0.0,0.0,0.3333,0.3333,2.6667,1.04,0.4419,0.4,0.165,2.0,0.9428,True,cubic,-43m,216,25.2134,12.5423,1.0
Br4 F20 Ge2,3,0.0,0.0,0.0,0.0,0.9231,0.0,0.0769,0.0,0.0,0.0,-1.2308,1.97,0.6029,0.75,0.2888,2.0,0.8427,True,monoclinic,2/m,14,16.6687,3.2371,0.3633
F2 Na2 O8 P2 Y2,5,0.0,0.125,0.0,0.5,0.125,0.0,0.0,0.0,0.0,0.125,-1.0,3.05,1.083,1.3,0.5171,3.0,0.9922,True,monoclinic,2/m,12,12.4483,3.7662,0.8732
S1 Sn1,2,0.0,0.0,0.0,0.0,0.0,0.0,0.0,0.0,0.0,0.0,-3.0,0.62,0.31,0.45,0.225,2.0,1.0,True,cubic,-43m,216,34.8102,3.5962,1.0
Ge8 Mo4,2,0.0,0.0,0.0,0.0,0.0,0.0,0.6667,0.0,0.0,0.3333,-1.3333,0.15,0.0707,0.2,0.0943,1.0,0.4714,True,orthorhombic,mmm,62,16.0861,8.3002,0.4031
Ba2 Ca1 O6 W1,4,0.0,0.0,0.3,0.6,0.0,0.0,0.0,0.0,0.0,0.1,-0.2,2.55,1.1267,1.55,0.6525,4.0,1.8,True,monoclinic,2/m,12,15.4804,6.3778,1.0032
As1 Yb1,2,0.0,0.0,0.0,0.0,0.0,0.5,0.5,0.0,0.5,0.0,0.0,2.18,1.09,0.6,0.3,4.0,2.0,True,cubic,m-3m,225,26.5998,7.7397,1.0
Rh8 Sb4,2,0.0,0.0,0.0,0.0,0.0,0.0,0.3333,0.0,0.0,0.6667,1.0,0.23,0.1084,0.1,0.0471,0.0,0.0,True,orthorhombic,mmm,62,16.567,10.9443,0.5245
Br16 Li8 Zn4,3,0.0,0.2857,0.0,0.0,0.5714,0.0,0.0,0.0,0.0,0.1429,0.0,1.98,0.8936,0.3,0.1355,2.0,0.9035,True,orthorhombic,mmm,62,25.7078,3.6809,0.4726
Mo6 O24 Zn6,3,0.0,0.0,0.0,0.6667,0.0,0.0,0.0,0.0,0.0,0.3333,-0.3333,1.79,0.7384,0.85,0.3782,3.0,1.2134,True,triclinic,-1,2,15.2251,4.0963,0.7148
Mg2 S8 Yb4,3,0.0,0.0,0.1429,0.0,0.0,0.2857,0.0,0.0,0.2857,0.0,0.0,2.58,1.1351,0.75,0.3388,5.0,2.2588,True,cubic,m-3m,227,25.2389,4.6867,1.0
Cd4 O12 Se4,3,0.0,0.0,0.0,0.8,0.0,0.0,0.0,0.0,0.0,0.2,-1.2,1.75,0.7015,0.95,0.3886,3.0,1.2649,True,orthorhombic,mmm,62,14.3657,5.5338,0.6466
C5 Nb6,2,0.0,0.0,0.0,0.0,0.0,0.0,0.0,0.0,0.0,0.5455,0.9091,0.95,0.473,0.75,0.3734,3.0,1.4938,True,monoclinic,2/m,12,12.4227,7.5036,1.0016
Ba5 Co5 O14,3,0.0,0.0,0.2083,0.5833,0.0,0.0,0.0,0.0,0.0,0.2083,-0.3333,2.55,1.0623,1.55,0.623,4.0,1.6137,True,trigonal,-3m,164,14.1656,5.887,0.4792
Co1 O7 P2,3,0.0,0.0,0.0,0.7,0.0,0.0,0.0,0.0,0.0,0.1,-1.8,1.56,0.6253,0.75,0.2534,2.0,0.6633,True,triclinic,1,1,11.9958,3.2236,0.8787
Ca12 Ge4 O4,3,0.0,0.0,0.6,0.2,0.0,0.0,0.2,0.0,0.0,0.0,-0.0,2.44,0.9585,1.2,0.4754,2.0,0.8,True,orthorhombic,mmm,62,21.3746,3.2454,0.7098
Ba1 Ni4 O8,3,0.0,0.0,0.0769,0.6154,0.0,0.0,0.0,0.0,0.0,0.3077,-0.4615,2.55,0.8807,1.55,0.4852,4.0,1.2686,True,trigonal,-3m,166,13.9732,4.5715,1.0
Bi4 Li4 O48 P16,4,0.0,0.0556,0.0,0.6667,0.0,0.0,0.0,0.0,0.0,0.0,-1.7778,2.46,0.743,1.0,0.3074,4.0,0.9558,True,monoclinic,2/m,14,14.7776,3.3199,0.487
Ca4 H12 O16 P4,4,0.0,0.0,0.1111,0.4444,0.0,0.0,0.0,0.0,0.0,0.0,-1.3333,2.44,0.8184,1.55,0.4635,3.0,0.9428,True,monoclinic,2/m,14,10.9548,2.3255,0.8513
As16 Ba16 S40,3,0.0,0.0,0.2222,0.0,0.0,0.0,0.2222,0.0,0.0,0.0,-1.3333,1.69,0.6742,1.15,0.4641,3.0,1.1967,True,orthorhombic,mm2,29,27.9976,3.854,0.5304
Rh8 Sn26 U6,3,0.15,0.0,0.0,0.0,0.0,0.0,0.0,0.0,0.15,0.2,-1.1,0.9,0.2654,0.4,0.122,4.0,1.4283,True,cubic,m-3m,223,23.0759,9.6028,1.0
Ba4 Nb2 O12 Pr2,4,0.0,0.0,0.2,0.6,0.0,0.1,0.0,0.0,0.1,0.1,0.0,2.55,1.1476,1.55,0.6623,6.0,2.1932,True,monoclinic,2/m,14,16.5348,6.0704,0.7081
C2 Cl10 Sc7,3,0.0,0.0,0.0,0.0,0.5263,0.0,0.0,0.0,0.0,0.3684,0.1579,1.8,0.8389,0.9,0.3259,2.0,0.6359,True,monoclinic,2/m,12,20.9298,2.8948,0.293
Ba2 O10 Pd2 Sm4,4,0.0,0.0,0.1111,0.5556,0.0,0.2222,0.0,0.0,0.2222,0.1111,-0.0,2.55,1.0871,1.55,0.6284,6.0,2.5142,True,tetragonal,4/mmm,127,14.9939,7.6842,0.8861
La5 Se8 Tl1,3,0.0,0.0,0.0,0.5714,0.0,0.3571,0.0,0.0,0.3571,0.3571,0.0,1.45,0.6865,0.8,0.392,4.0,1.879,True,tetragonal,-4,82,27.5585,6.5876,1.0
Au24 F108 Tm12,3,0.0,0.0,0.0,0.0,0.75,0.0833,0.0,0.0,0.0833,0.1667,0.0,2.73,0.8649,1.25,0.4361,6.0,2.075,True,orthorhombic,mmm,60,15.6518,6.488,0.4199
O32 P8 Rb8 V4,4,0.0,0.1538,0.0,0.6154,0.0,0.0,0.0,0.0,0.0,0.0769,-1.1538,2.62,1.0044,1.75,0.623,3.0,1.12,True,orthorhombic,222,19,16.9901,3.0961,0.5438
Ca6 Mn4 O14,3,0.0,0.0,0.25,0.5833,0.0,0.0,0.0,0.0,0.0,0.1667,-0.3333,2.44,1.1082,1.2,0.5281,2.0,0.986,True,orthorhombic,mmm,63,11.6561,4.0614,0.5432
Cs1 Nb3 O10 Sr2,4,0.0,0.0625,0.125,0.625,0.0,0.0,0.0,0.0,0.0,0.1875,0.0,2.65,1.0832,2.0,0.6476,4.0,1.5499,True,tetragonal,4/mmm,123,15.6645,4.9482,0.2552
H16 N4 O24 Se2 W6,5,0.0,0.0,0.0,0.5,0.0,0.0,0.0,0.0,0.0,0.1154,-1.0769,1.24,0.5694,1.1,0.3382,5.0,1.5015,True,hexagonal,6,173,11.3089,4.8486,0.5845
Pb2 Rh3 S2,3,0.0,0.0,0.0,0.0,0.0,0.0,0.0,0.0,0.0,0.4286,1.2857,0.3,0.1282,0.8,0.3034,3.0,1.1606,True,trigonal,-3m,166,19.6688,9.4947,1.0
Cl16 Na4 Sc4,3,0.0,0.1667,0.0,0.0,0.6667,0.0,0.0,0.0,0.0,0.1667,0.0,2.23,0.958,0.8,0.335,1.0,0.3727,True,orthorhombic,mmm,60,26.7502,2.1701,0.4042
Ba2 Pd2 Sb4,3,0.0,0.0,0.25,0.0,0.0,0.0,0.5,0.0,0.0,0.25,-0.5,1.31,0.5275,0.75,0.311,1.0,0.433,True,orthorhombic,mmm,63,29.0381,6.9661,0.5101
Ba6 Cu2 O18 Sb4,4,0.0,0.0,0.2,0.6,0.0,0.0,0.1333,0.0,0.0,0.0667,-1.0667,2.55,1.0389,1.55,0.6247,4.0,1.6997,True,hexagonal,6mm,186,14.5815,6.5522,0.4039
In8 Na24 P16,3,0.0,0.5,0.0,0.0,0.0,0.0,0.0,0.0,0.0,0.0,0.0,1.26,0.5781,0.8,0.3587,2.0,0.7454,True,monoclinic,2/m,14,22.5681,3.0135,0.479
Eu3 O6 Ta1,3,0.0,0.0,0.0,0.6,0.0,0.3,0.0,0.0,0.3,0.1,-0.1,3.44,1.5567,1.25,0.5739,6.0,2.7495,True,cubic,m-3m,225,15.3832,7.9106,1.0
H6 K6 N6 O12 P6,5,0.0,0.1667,0.0,0.3333,0.0,0.0,0.0,0.0,0.0,0.0,-1.6667,2.62,0.9187,1.95,0.6276,3.0,0.9428,True,trigonal,-3,148,13.6963,2.3659,1.0
Ge8 K8 O40 P8,4,0.0,0.125,0.0,0.625,0.0,0.0,0.125,0.0,0.0,0.0,-2.0,2.62,0.9328,1.6,0.5321,2.0,0.857,True,orthorhombic,mm2,33,13.0513,3.542,0.4991
Au4 Mg4 Yb4,3,0.0,0.0,0.3333,0.0,0.0,0.3333,0.0,0.0,0.3333,0.3333,2.6667,2.54,1.0371,0.4,0.165,5.0,2.0548,True,orthorhombic,mmm,62,23.4512,9.3068,0.509
C4 Cu2 K2,3,0.0,0.25,0.0,0.0,0.0,0.0,0.0,0.0,0.0,0.25,-1.25,1.73,0.707,1.5,0.6158,2.0,1.0,True,tetragonal,4/mmm,131,23.4193,2.2453,0.6339
Br4 Yb2,2,0.0,0.0,0.0,0.0,0.6667,0.3333,0.0,0.0,0.3333,0.0,0.3333,2.96,1.3954,0.6,0.2828,4.0,1.8856,True,orthorhombic,mmm,58,33.0923,5.5673,0.6287
Dy4 Mn4 O12,3,0.0,0.0,0.0,0.6,0.0,0.2,0.0,0.0,0.2,0.2,-0.2,2.22,1.0121,1.15,0.4903,6.0,2.3324,True,orthorhombic,mmm,62,11.7074,7.5297,0.7111
Al4 Ni2 Tm2,3,0.0,0.0,0.0,0.0,0.0,0.25,0.0,0.0,0.25,0.25,2.75,0.66,0.2338,0.5,0.2062,5.0,2.0616,True,orthorhombic,mmm,63,17.3058,6.7549,0.5904
Al14 Au6 Sm2,3,0.0,0.0,0.0,0.0,0.0,0.0909,0.0,0.0,0.0909,0.2727,3.0,1.37,0.4559,0.6,0.1696,5.0,1.7628,True,trigonal,-3m,167,18.4341,7.6169,1.0
C4 Co2 H16 K4 O20,5,0.0,0.087,0.0,0.4348,0.0,0.0,0.0,0.0,0.0,0.0435,-1.3913,2.62,0.8121,1.95,0.5358,3.0,0.9284,True,monoclinic,2/m,14,10.7032,2.2206,0.5542
Ca8 Nb8 O28,3,0.0,0.0,0.1818,0.6364,0.0,0.0,0.0,0.0,0.0,0.1818,0.0,2.44,1.0452,1.2,0.5042,3.0,1.2398,True,monoclinic,2,4,13.2466,4.3073,0.4062
Bi2 Na6,2,0.0,0.75,0.0,0.0,0.0,0.0,0.0,0.0,0.0,0.0,1.5,1.09,0.472,0.2,0.0866,3.0,1.299,True,hexagonal,6/mmm,194,31.7877,3.6299,0.5618
Ag16 Bi8 O20,3,0.0,0.0,0.0,0.4545,0.0,0.0,0.0,0.0,0.0,0.3636,0.0,1.51,0.7376,1.0,0.4979,4.0,1.6959,True,orthorhombic,mmm,52,17.4109,8.0584,0.4095
Al8 Co2 La2,3,0.0,0.0,0.0,0.0,0.0,0.1667,0.0,0.0,0.1667,0.3333,2.8333,0.78,0.2322,0.7,0.256,5.0,1.8257,True,orthorhombic,mmm,51,18.2713,4.6314,0.5273
F3 Nb1,2,0.0,0.0,0.0,0.0,0.75,0.0,0.0,0.0,0.0,0.25,0.5,2.38,1.0306,0.95,0.4114,3.0,1.299,True,cubic,m-3m,221,18.4563,3.3717,1.0
S4 Sn4,2,0.0,0.0,0.0,0.0,0.0,0.0,0.0,0.0,0.0,0.0,-3.0,0.62,0.31,0.45,0.225,2.0,1.0,True,orthorhombic,mmm,62,25.547,4.9001,0.352
Hg24 O48 Te8,3,0.0,0.0,0.0,0.7,0.0,0.0,0.1,0.0,0.0,0.3,-1.1,1.44,0.6937,0.9,0.4295,4.0,1.8574,True,cubic,m-3,206,16.7726,8.1714,1.0
Ca2 Fe2 O4,3,0.0,0.0,0.25,0.5,0.0,0.0,0.0,0.0,0.0,0.25,0.0,2.44,1.0542,1.2,0.5196,2.0,1.0,True,tetragonal,-42m,113,12.9265,4.1082,0.5699
As4 Rb4 Sn2,3,0.0,0.4,0.0,0.0,0.0,0.0,0.4,0.0,0.0,0.0,-1.6,1.36,0.6354,1.2,0.5499,1.0,0.4899,True,orthorhombic,mmm,72,38.1595,3.8249,0.8032
Ce4 Si4,2,0.0,0.0,0.0,0.0,0.0,0.5,0.5,0.0,0.5,0.0,-0.5,0.78,0.39,0.75,0.375,5.0,2.5,True,orthorhombic,mmm,62,23.2133,6.016,0.477
Ba20 Sb16,2,0.0,0.0,0.5556,0.0,0.0,0.0,0.4444,0.0,0.0,0.0,-0.2222,1.16,0.5764,0.7,0.3478,1.0,0.4969,True,orthorhombic,mmm,62,42.1572,5.1367,0.508
Dy1 Li1 Se2,3,0.0,0.25,0.0,0.5,0.0,0.25,0.0,0.0,0.25,0.0,0.0,1.57,0.7299,0.6,0.2487,6.0,2.1794,True,trigonal,-3m,166,23.3141,5.829,1.0
Ba2 Ho4 O10 Pd2,4,0.0,0.0,0.1111,0.5556,0.0,0.2222,0.0,0.0,0.2222,0.1111,-0.0,2.55,1.0708,1.55,0.6042,6.0,2.5142,True,tetragonal,4/mmm,127,14.1125,8.5451,0.9029
Ru16 Si24,2,0.0,0.0,0.0,0.0,0.0,0.0,0.6,0.0,0.0,0.4,-1.2,0.3,0.147,0.2,0.098,2.0,0.9798,True,orthorhombic,mmm,60,14.002,6.7929,0.5
Mg3 Tl3 Y3,3,0.0,0.0,0.3333,0.0,0.0,0.0,0.0,0.0,0.0,0.3333,2.0,0.4,0.1713,0.4,0.17,3.0,1.2472,True,hexagonal,-6m2,189,25.8381,6.8036,1.6189
Ir4 Pu2,2,0.3333,0.0,0.0,0.0,0.0,0.0,0.0,0.0,0.3333,0.6667,3.3333,0.92,0.4337,0.4,0.1886,3.0,1.4142,True,cubic,m-3m,227,17.3541,20.044,1.0
In1 Li1 Mo3 O8,4,0.0,0.0769,0.0,0.6154,0.0,0.0,0.0,0.0,0.0,0.2308,0.0,2.46,0.825,0.95,0.424,3.0,1.3846,True,trigonal,3m,156,11.5969,5.9211,1.1486
Rh30 Si18 Tm6,3,0.0,0.0,0.0,0.0,0.0,0.1111,0.3333,0.0,0.1111,0.5556,0.6667,1.03,0.3284,0.65,0.1926,5.0,1.4907,True,hexagonal,6/m,176,15.1331,9.3601,4.0351
Er4 K4 O32 S8,4,0.0,0.0833,0.0,0.6667,0.0,0.0833,0.0,0.0,0.0833,0.0,-1.3333,2.62,0.8953,1.6,0.5125,6.0,1.675,True,monoclinic,2/m,14,13.7256,4.0174,0.4071
Nd2 Pd6 S8,3,0.0,0.0,0.0,0.0,0.0,0.125,0.0,0.0,0.125,0.375,0.125,1.44,0.4575,0.85,0.2909,5.0,1.6536,True,cubic,m-3m,223,19.3826,6.3372,1.0
Bi1 Cs1 F6,3,0.0,0.125,0.0,0.0,0.75,0.0,0.0,0.0,0.0,0.0,-0.25,3.19,1.1566,2.1,0.7365,4.0,1.7321,True,trigonal,-3,148,21.0245,4.5007,1.0
Na8 O12 S8,3,0.0,0.2857,0.0,0.4286,0.0,0.0,0.0,0.0,0.0,0.0,-1.1429,2.51,1.0413,1.2,0.4982,1.0,0.4949,True,monoclinic,2/m,14,16.4154,2.2848,0.7566
C2 S2 Ti4,3,0.0,0.0,0.0,0.0,0.0,0.0,0.0,0.0,0.0,0.5,0.5,1.04,0.5126,0.7,0.2947,2.0,0.8292,True,hexagonal,6/mmm,194,12.5224,4.6349,0.2845
Ag1 Bi2 F12,3,0.0,0.0,0.0,0.0,0.8,0.0,0.0,0.0,0.0,0.0667,-0.3333,2.05,0.7962,1.1,0.44,4.0,1.4817,True,triclinic,-1,2,16.7382,4.9855,0.5871
B2 V1,2,0.0,0.0,0.0,0.0,0.0,0.0,0.6667,0.0,0.0,0.3333,3.6667,0.41,0.1933,0.5,0.2357,2.0,0.9428,True,hexagonal,6/mmm,191,7.8623,5.1086,0.9896
Br4 H4 O14 Sr2,4,0.0,0.0,0.0833,0.5833,0.1667,0.0,0.0,0.0,0.0,0.0,-1.3333,2.49,0.7531,1.75,0.4601,4.0,1.1873,True,monoclinic,2/m,15,13.9736,3.5793,0.9937
Cl6 Hf1 Te4,3,0.0,0.0,0.0,0.3636,0.5455,0.0,0.3636,0.0,0.0,0.0909,-0.9091,1.86,0.6446,0.55,0.2179,3.0,1.1282,True,triclinic,-1,2,35.5292,3.8308,0.933
Cu10 Na2 S6,3,0.0,0.1111,0.0,0.0,0.0,0.0,0.0,0.0,0.0,0.5556,0.5556,1.65,0.4945,0.8,0.2427,1.0,0.4969,True,hexagonal,622,182,17.2703,4.6677,1.0301
Ge4 Se4,2,0.0,0.0,0.0,0.5,0.0,0.0,0.5,0.0,0.0,0.0,-3.0,0.54,0.27,0.1,0.05,0.0,0.0,True,orthorhombic,mmm,62,24.5744,5.1219,0.348
C4 Cr12 Nb12,3,0.0,0.0,0.0,0.0,0.0,0.0,0.0,0.0,0.0,0.8571,2.8571,0.95,0.3231,0.75,0.2548,3.0,0.9897,True,cubic,m-3m,227,13.8103,7.6733,1.0
Ge2 S2 Th2,3,0.3333,0.0,0.0,0.0,0.0,0.0,0.3333,0.0,0.3333,0.0,-0.6667,1.28,0.5236,0.8,0.3342,6.0,2.6247,True,tetragonal,4/mmm,139,22.5318,8.2724,0.4395
Nd2 Pd2 Sb4,3,0.0,0.0,0.0,0.0,0.0,0.25,0.5,0.0,0.25,0.25,-0.25,1.06,0.4202,0.45,0.1816,3.0,1.299,True,tetragonal,4/mmm,129,25.0672,8.1841,0.4528
F24 O16 Tc8,3,0.0,0.0,0.0,0.3333,0.5,0.0,0.0,0.0,0.0,0.1667,-0.5,2.08,0.7355,0.85,0.3052,3.0,1.118,True,triclinic,-1,2,16.2631,3.1822,0.6778
Cr2 Cs2 I6,3,0.0,0.2,0.0,0.0,0.6,0.0,0.0,0.0,0.0,0.2,0.2,1.87,0.7549,1.2,0.48,2.0,0.6325,True,hexagonal,6mm,186,40.8761,4.5955,1.1935
Al4 Cu2 Mg2,3,0.0,0.0,0.25,0.0,0.0,0.0,0.0,0.0,0.0,0.25,2.5,0.59,0.2086,0.25,0.1023,1.0,0.433,True,orthorhombic,mmm,63,16.5689,3.5532,0.5609
Dy1 Pt3,2,0.0,0.0,0.0,0.0,0.0,0.25,0.0,0.0,0.25,0.75,2.25,1.06,0.459,0.4,0.1732,2.0,0.866,True,cubic,m-3m,221,17.5056,17.7325,1.0
B2 Ru3 Yb1,3,0.0,0.0,0.0,0.0,0.0,0.1667,0.3333,0.0,0.1667,0.5,3.0,2.2,0.7992,0.9,0.3092,6.0,2.0616,True,hexagonal,6/mmm,191,13.1717,10.461,1.8869
P2 Pd15,2,0.0,0.0,0.0,0.0,0.0,0.0,0.0,0.0,0.0,0.8824,1.4118,0.01,0.0032,0.4,0.1289,2.0,0.6444,True,trigonal,-3,148,15.4076,10.5127,1.0
O12 Si4 V2,3,0.0,0.0,0.0,0.6667,0.0,0.0,0.2222,0.0,0.0,0.1111,-1.6667,1.81,0.7719,0.75,0.2833,2.0,0.6849,True,monoclinic,2/m,15,11.8623,3.1591,1.2144
Ag1 La5 S8,3,0.0,0.0,0.0,0.0,0.0,0.3571,0.0,0.0,0.3571,0.4286,0.0,1.48,0.6941,0.95,0.4494,5.0,2.3441,True,tetragonal,-4,82,23.7434,5.2898,1.0
Al12 Mg6 O24,3,0.0,0.0,0.1429,0.5714,0.0,0.0,0.0,0.0,0.0,0.0,0.0,2.13,0.9596,0.9,0.371,1.0,0.4949,True,monoclinic,m,8,9.7335,3.4672,0.3331
Al2 C2 Sc4,3,0.0,0.0,0.0,0.0,0.0,0.0,0.0,0.0,0.0,0.5,1.25,1.19,0.4899,0.9,0.3681,2.0,0.8292,True,hexagonal,6/mmm,194,17.694,3.0243,0.2189
Na2 O10 V4,3,0.0,0.125,0.0,0.625,0.0,0.0,0.0,0.0,0.0,0.25,0.125,2.51,1.0097,1.2,0.4547,2.0,0.857,True,orthorhombic,mmm,59,13.1278,3.2392,0.3168
Br3 Li6 N1,3,0.0,0.6,0.0,0.0,0.3,0.0,0.0,0.0,0.0,0.0,-0.0,2.06,0.98,0.8,0.2492,2.0,0.9165,True,cubic,m-3m,225,18.4974,2.6515,1.0
Sr4 Zn20,2,0.0,0.0,0.1667,0.0,0.0,0.0,0.0,0.0,0.0,0.8333,2.0,0.7,0.2609,0.65,0.2422,1.0,0.3727,True,orthorhombic,mmm,62,19.6305,5.8461,0.3984
Be1 Se1,2,0.0,0.0,0.5,0.5,0.0,0.0,0.0,0.0,0.0,0.0,0.0,0.98,0.49,0.1,0.05,2.0,1.0,True,cubic,-43m,216,17.4118,4.1949,1.0
O36 Rb2 W12,3,0.0,0.04,0.0,0.72,0.0,0.0,0.0,0.0,0.0,0.24,-0.44,2.62,0.6496,1.75,0.4416,4.0,1.7417,True,orthorhombic,mmm,58,15.1517,6.4726,0.9727
Ge2 Se6 Tl4,3,0.0,0.0,0.0,0.5,0.0,0.0,0.1667,0.0,0.0,0.0,-1.3333,0.93,0.4206,0.75,0.3436,2.0,0.9428,True,triclinic,-1,2,32.19,6.1755,0.7917
Ba1 O1,2,0.0,0.0,0.5,0.5,0.0,0.0,0.0,0.0,0.0,0.0,0.0,2.55,1.275,1.55,0.775,4.0,2.0,True,cubic,m-3m,225,22.1275,5.7531,1.0
Au2 Ca1 Ge2,3,0.0,0.0,0.2,0.0,0.0,0.0,0.4,0.0,0.0,0.4,0.0,1.54,0.5624,0.55,0.2049,2.0,0.9798,True,tetragonal,4/mmm,139,21.2836,9.0392,0.7392
Ba6 O18 Ti6,3,0.0,0.0,0.2,0.6,0.0,0.0,0.0,0.0,0.0,0.2,0.0,2.55,1.1092,1.55,0.6226,4.0,1.6,True,hexagonal,6/mmm,194,13.6311,5.6815,0.4105
F20 K12 Np4 O8,4,0.0909,0.2727,0.0,0.1818,0.4545,0.0,0.0,0.0,0.0909,0.0,-0.0909,3.16,1.4017,1.7,0.7599,7.0,2.0369,True,tetragonal,4/m,88,18.0022,4.0358,0.8219
Eu4 I8,2,0.0,0.0,0.0,0.0,0.6667,0.3333,0.0,0.0,0.3333,0.0,0.0,2.66,1.2539,0.45,0.2121,3.0,1.4142,True,monoclinic,2/m,14,42.5266,5.2814,0.9489
Cd2 Ga4 O8,3,0.0,0.0,0.0,0.5714,0.0,0.0,0.0,0.0,0.0,0.1429,0.0,1.75,0.8273,0.95,0.3953,3.0,1.1952,True,cubic,m-3m,227,11.9577,6.266,1.0
Co4 Zr2,2,0.0,0.0,0.0,0.0,0.0,0.0,0.0,0.0,0.0,1.0,2.6667,0.55,0.2593,0.2,0.0943,1.0,0.4714,True,cubic,m-3m,227,13.7412,8.4224,1.0
Ge2 Te8 Zr2,3,0.0,0.0,0.0,0.6667,0.0,0.0,0.8333,0.0,0.0,0.1667,-1.3333,0.77,0.2822,0.3,0.0866,1.0,0.3727,True,orthorhombic,mm2,36,32.0018,5.8311,0.3613
Pd4 S8 U2,3,0.1429,0.0,0.0,0.0,0.0,0.0,0.0,0.0,0.1429,0.2857,0.2857,1.2,0.4106,0.75,0.2776,6.0,2.0603,True,tetragonal,4/m,88,19.4994,7.0454,0.8885
H6 Na2 O16 S4 Zn4,5,0.0,0.0625,0.0,0.5,0.0,0.0,0.0,0.0,0.0,0.125,-1.125,2.51,0.8098,1.55,0.4241,3.0,0.9014,True,triclinic,-1,2,11.6714,3.103,0.7092
Al8 Ca1 Cu4,3,0.0,0.0,0.0769,0.0,0.0,0.0,0.0,0.0,0.0,0.3077,2.6154,0.9,0.2296,0.55,0.1449,1.0,0.4865,True,tetragonal,4/mmm,139,15.4729,4.2112,0.7565