formula,numberOfSpecies,fracActinoid,fracAlkali,fracAlkaline,fracChalcogen,fracHalogen,fracLanthanoid,fracMetalloid,fracNobleGas,fracRareEarth,fracTransitionMetal,electronsPerAtom,electronegativityRange,electronegativityStd,radiiRange,radiiStd,rowRange,rowStd,ordered,crystalSystem,pointGroup,spaceGroupNumber,volumePerSite,density,c_a
K4 O10 S4,3,0.0,0.2222,0.0,0.5556,0.0,0.0,0.0,0.0,0.0,0.0,-1.3333,2.62,1.0449,1.6,0.6379,2.0,0.8165,True,monoclinic,2/m,11,18.7908,2.183,0.8057
Cd1 Cr2 H4 K2 O10,5,0.0,0.1053,0.0,0.5263,0.0,0.0,0.0,0.0,0.0,0.1579,-0.7368,2.62,0.9352,1.95,0.5981,4.0,1.1792,True,triclinic,-1,2,13.709,2.9238,0.7805
Ge12 O32 Zn8,3,0.0,0.0,0.0,0.6154,0.0,0.0,0.2308,0.0,0.0,0.1538,-1.8462,1.79,0.7735,0.75,0.3371,2.0,0.973,True,cubic,432,212,11.1797,5.4469,1.0
Ca8 Mn4 O16,3,0.0,0.0,0.2857,0.5714,0.0,0.0,0.0,0.0,0.0,0.1429,-0.2857,2.44,1.1296,1.2,0.5421,2.0,0.9897,True,tetragonal,4/mmm,142,12.0485,3.9199,0.4102
Ba2 Ni2 O6,3,0.0,0.0,0.2,0.6,0.0,0.0,0.0,0.0,0.0,0.2,-0.4,2.55,1.0502,1.55,0.6176,4.0,1.6,True,hexagonal,6mm,186,13.6903,5.9196,1.1855
Ca4 Ge4 O20 Ti4,4,0.0,0.0,0.125,0.625,0.0,0.0,0.125,0.0,0.0,0.125,-1.0,2.44,0.9648,1.2,0.4507,2.0,0.9682,True,monoclinic,2/m,14,12.5842,3.9682,0.7552
Al4 Ba2 Cl16,3,0.0,0.0,0.0909,0.0,0.7273,0.0,0.0,0.0,0.0,0.0,0.0,2.27,0.8167,1.15,0.3303,3.0,0.8624,True,monoclinic,2/m,13,33.4177,2.1453,0.5691
S20 Th8,2,0.2857,0.0,0.0,0.0,0.0,0.0,0.0,0.0,0.2857,0.0,-0.2857,1.28,0.5782,0.8,0.3614,6.0,2.7105,True,orthorhombic,mmm,60,21.3859,6.9261,0.743
B10 Ho3 Ni19,3,0.0,0.0,0.0,0.0,0.0,0.0938,0.3125,0.0,0.0938,0.5938,2.4063,0.81,0.2193,0.9,0.2811,6.0,1.6394,True,monoclinic,2/m,12,10.2853,8.6681,0.7304
Au3 Ce3 In3,3,0.0,0.0,0.0,0.0,0.0,0.3333,0.0,0.0,0.3333,0.3333,3.0,1.42,0.5802,0.5,0.2055,3.0,1.2472,True,hexagonal,-6m2,189,24.7567,10.1036,1.7958
F6 Ge1 Rb2,3,0.0,0.2222,0.0,0.0,0.6667,0.0,0.1111,0.0,0.0,0.0,-0.8889,3.16,1.3423,1.85,0.7606,3.0,1.2862,True,trigonal,-3m,164,16.926,3.8977,1.2062
Ag2 Cr4 Te8,3,0.0,0.0,0.0,0.5714,0.0,0.0,0.5714,0.0,0.0,0.4286,-0.1429,0.44,0.1922,0.2,0.07,1.0,0.4518,True,cubic,m-3m,227,27.3003,6.2759,1.0
K4 P2 Zn1,3,0.0,0.5714,0.0,0.0,0.0,0.0,0.0,0.0,0.0,0.1429,0.0,1.37,0.612,1.2,0.5469,1.0,0.4518,True,trigonal,-3m,166,34.9969,1.9233,1.0
Cr1 H1,2,0.0,0.0,0.0,0.0,0.0,0.0,0.0,0.0,0.0,0.5,1.0,0.54,0.27,1.15,0.575,3.0,1.5,True,cubic,m-3m,225,6.7461,6.5234,1.0
Cu3 Dy1 O8 Pb2 Sr2,5,0.0,0.0,0.125,0.5,0.0,0.0625,0.0,0.0,0.0625,0.1875,0.0625,2.49,0.9548,1.4,0.5694,6.0,1.8666,True,tetragonal,4/mmm,123,14.7276,7.5456,0.2392
La2 Zn17,2,0.0,0.0,0.0,0.0,0.0,0.1053,0.0,0.0,0.1053,1.0,2.1053,0.55,0.1688,0.6,0.1841,4.0,1.2276,True,trigonal,-3m,166,16.9763,7.1547,1.0
Cl1 Rb1,2,0.0,0.5,0.0,0.0,0.5,0.0,0.0,0.0,0.0,0.0,0.0,2.34,1.17,1.35,0.675,2.0,1.0,True,cubic,m-3m,221,31.9132,3.1459,1.0
Cu4 La2 O8,3,0.0,0.0,0.0,0.5714,0.0,0.1429,0.0,0.0,0.1429,0.4286,-0.1429,2.34,0.9275,1.35,0.5053,6.0,2.0603,True,monoclinic,2/m,15,12.2996,6.3645,0.9184
Nd2 Rb2 Te8,3,0.0,0.1667,0.0,0.6667,0.0,0.1667,0.6667,0.0,0.1667,0.0,-0.6667,1.28,0.536,0.95,0.3602,3.0,1.118,True,tetragonal,4/mmm,125,37.744,5.4268,0.7469
La2 Nb2 O8,3,0.0,0.0,0.0,0.6667,0.0,0.1667,0.0,0.0,0.1667,0.3333,0.0,2.34,0.9958,1.35,0.5383,6.0,2.2913,True,monoclinic,2/m,15,14.5159,5.6398,0.776
Ba4 N8 Si4,3,0.0,0.0,0.25,0.0,0.0,0.0,0.25,0.0,0.0,0.0,-2.0,2.15,0.8967,1.5,0.6128,4.0,1.6394,True,orthorhombic,mmm,64,15.6843,5.1196,0.7393
C6 Fe1 K2 N6 Ni1,5,0.0,0.125,0.0,0.0,0.0,0.0,0.0,0.0,0.0,0.125,-2.25,2.22,0.713,1.55,0.5245,2.0,0.866,True,cubic,m-3m,225,16.5851,2.1829,1.0
Bi8 O24 Ti6,3,0.0,0.0,0.0,0.6316,0.0,0.0,0.0,0.0,0.0,0.1579,0.0,1.9,0.7974,1.0,0.4451,4.0,1.6307,True,orthorhombic,mm2,41,13.3152,7.6894,0.323
Br20 Sr10,2,0.0,0.0,0.3333,0.0,0.6667,0.0,0.0,0.0,0.0,0.0,0.0,2.01,0.9475,0.85,0.4007,1.0,0.4714,True,tetragonal,4/m,85,33.4824,4.0903,0.6217
F18 U4,2,0.1818,0.0,0.0,0.0,0.8182,0.0,0.0,0.0,0.1818,0.0,0.2727,2.6,1.0028,1.25,0.4821,7.0,2.6999,True,cubic,-43m,217,14.112,6.9215,1.0
Fe8 N4,2,0.0,0.0,0.0,0.0,0.0,0.0,0.0,0.0,0.0,0.6667,0.3333,1.21,0.5704,0.75,0.3536,2.0,0.9428,True,orthorhombic,mmm,60,9.4031,7.3991,0.795
Cl2 Hg2,2,0.0,0.0,0.0,0.0,0.5,0.0,0.0,0.0,0.0,0.5,0.0,1.16,0.58,0.5,0.25,3.0,1.5,True,tetragonal,4/mmm,139,31.325,6.2563,0.7306
I2 Li2 O6,3,0.0,0.2,0.0,0.6,0.2,0.0,0.0,0.0,0.0,0.0,-1.2,2.46,0.955,0.85,0.4045,3.0,1.2,True,hexagonal,6,173,14.042,4.3008,1.0487
I16 In4 Na4,3,0.0,0.1667,0.0,0.0,0.6667,0.0,0.0,0.0,0.0,0.0,0.0,1.73,0.6623,0.4,0.1484,2.0,0.7454,True,monoclinic,2/m,14,48.0724,3.7158,0.506
Mo8 P5,2,0.0,0.0,0.0,0.0,0.0,0.0,0.0,0.0,0.0,0.6154,1.3077,0.03,0.0146,0.45,0.2189,2.0,0.973,True,monoclinic,m,6,14.51,8.1199,0.3384
Fe19 P12 Th5,3,0.1389,0.0,0.0,0.0,0.0,0.0,0.0,0.0,0.1389,0.5278,0.6111,0.89,0.283,0.8,0.2636,6.0,1.9171,True,monoclinic,2/m,12,13.5394,8.8336,0.2587
Cr4 Li4 O16 P4,4,0.0,0.1429,0.0,0.5714,0.0,0.0,0.0,0.0,0.0,0.1429,-1.0,2.46,0.9619,0.85,0.363,2.0,0.7284,True,orthorhombic,mmm,62,11.1255,3.2817,2.1466
B12 Ni24 Tb2,3,0.0,0.0,0.0,0.0,0.0,0.0526,0.3158,0.0,0.0526,0.6316,2.3684,2.04,0.4402,0.9,0.262,6.0,1.3885,True,orthorhombic,mm2,36,10.1313,8.0063,0.5498
Au1 F6 O2,3,0.0,0.0,0.0,0.2222,0.6667,0.0,0.0,0.0,0.0,0.1111,-0.7778,1.44,0.4656,0.85,0.2625,4.0,1.2571,True,triclinic,-1,2,14.7773,4.282,0.9838
Cu1 Ga1 I4,3,0.0,0.0,0.0,0.0,0.6667,0.0,0.0,0.0,0.0,0.1667,0.1667,0.85,0.3804,0.1,0.0382,1.0,0.4714,True,tetragonal,-4,82,40.4345,4.3866,0.8856
Cu4 P10 Sn1,3,0.0,0.0,0.0,0.0,0.0,0.0,0.0,0.0,0.0,0.2667,-1.7333,0.29,0.1318,0.45,0.1759,2.0,0.611,True,trigonal,3m,160,18.2963,4.1303,1.0005
F6 Ti1 Zr1,3,0.0,0.0,0.0,0.0,0.75,0.0,0.0,0.0,0.0,0.25,0.25,2.65,1.1033,1.05,0.4238,3.0,1.111,True,cubic,m-3m,225,17.5437,2.9943,1.0
B1 Er1 Rh3,3,0.0,0.0,0.0,0.0,0.0,0.2,0.2,0.0,0.2,0.6,3.0,1.04,0.4029,0.9,0.2857,6.0,1.8974,True,cubic,m-3m,221,14.75,10.9604,1.0
Cu4 La8 O24 Sn4,4,0.0,0.0,0.0,0.6,0.0,0.2,0.0,0.0,0.2,0.3,-0.8,2.34,0.979,1.35,0.5551,6.0,2.3685,True,monoclinic,2/m,11,13.4227,6.8791,0.9
Mn2 O14 P4,3,0.0,0.0,0.0,0.7,0.0,0.0,0.0,0.0,0.0,0.1,-1.8,1.89,0.6906,0.8,0.2653,2.0,0.6633,True,triclinic,-1,2,12.6365,3.0077,0.6097
Pu2 Zn4,2,0.3333,0.0,0.0,0.0,0.0,0.0,0.0,0.0,0.3333,0.6667,2.6667,0.37,0.1744,0.4,0.1886,5.0,2.357,True,cubic,m-3m,227,19.1287,10.8458,1.0
K4 N4 O8,3,0.0,0.25,0.0,0.5,0.0,0.0,0.0,0.0,0.0,0.0,-1.5,2.62,1.0891,1.6,0.6859,2.0,0.866,True,monoclinic,2/m,14,18.8106,1.8782,0.46
Au8 F40,2,0.0,0.0,0.0,0.0,0.8333,0.0,0.0,0.0,0.0,0.1667,-0.3333,1.44,0.5367,0.85,0.3168,4.0,1.4907,True,orthorhombic,mmm,62,15.6549,5.1614,0.3265
O72 P16,2,0.0,0.0,0.0,0.8182,0.0,0.0,0.0,0.0,0.0,0.0,-2.1818,1.25,0.4821,0.4,0.1543,1.0,0.3857,True,orthorhombic,222,19,13.6777,2.2729,0.5886
Ge10 Nd6,2,0.0,0.0,0.0,0.0,0.0,0.375,0.625,0.0,0.375,0.0,-1.375,0.87,0.4212,0.6,0.2905,4.0,1.9365,True,orthorhombic,mm2,43,23.6438,6.9874,0.6331
C1 Li2 N2,3,0.0,0.4,0.0,0.0,0.0,0.0,0.0,0.0,0.0,0.0,-1.6,2.06,0.9462,0.8,0.3842,0.0,0.0,True,tetragonal,4/mmm,139,12.1037,1.4791,0.7284
Cl4 K4 O16,3,0.0,0.1667,0.0,0.6667,0.1667,0.0,0.0,0.0,0.0,0.0,-1.3333,2.62,0.961,1.6,0.585,2.0,0.7638,True,orthorhombic,mmm,62,16.1469,2.3747,0.6418
F24 Hf6,2,0.0,0.0,0.0,0.0,0.8,0.0,0.0,0.0,0.0,0.2,0.0,2.68,1.072,1.05,0.42,4.0,1.6,True,monoclinic,2/m,15,12.2683,6.889,0.9991
B2 Ru3 Tb1,3,0.0,0.0,0.0,0.0,0.0,0.1667,0.3333,0.0,0.1667,0.5,3.0,2.2,0.7992,0.9,0.3092,6.0,2.0616,True,hexagonal,6/mmm,191,13.3484,10.0299,1.8139
Co2 O18 Se6 Sr4,4,0.0,0.0,0.1333,0.8,0.0,0.0,0.0,0.0,0.0,0.0667,-1.2,2.49,0.8777,1.4,0.489,3.0,1.1813,True,triclinic,-1,2,15.838,4.299,0.8408
Cd1 Eu1,2,0.0,0.0,0.0,0.0,0.0,0.5,0.0,0.0,0.5,0.5,2.0,1.69,0.845,0.3,0.15,3.0,1.5,True,cubic,m-3m,221,30.9147,7.1003,1.0
Ir2 Sb2,2,0.0,0.0,0.0,0.0,0.0,0.0,0.5,0.0,0.0,0.5,0.0,0.15,0.075,0.1,0.05,1.0,0.5,True,hexagonal,6/mmm,194,20.0096,13.028,0.7255
N8 S16,2,0.0,0.0,0.0,0.0,0.0,0.0,0.0,0.0,0.0,0.0,-2.3333,0.46,0.2168,0.35,0.165,1.0,0.4714,True,tetragonal,4mm,102,24.9321,1.7347,0.3579
Ni4 O16 P4 Sr2,4,0.0,0.0,0.0769,0.6154,0.0,0.0,0.0,0.0,0.0,0.1538,-1.2308,2.49,0.8331,1.4,0.4253,3.0,0.9911,True,triclinic,-1,2,12.0393,4.1903,0.5951
As4 K4 Pd2,3,0.0,0.4,0.0,0.0,0.0,0.0,0.4,0.0,0.0,0.2,-0.4,1.38,0.6696,1.05,0.4823,1.0,0.4,True,orthorhombic,mmm,63,29.3076,3.79,0.7601
Er2 Mg1,2,0.0,0.0,0.3333,0.0,0.0,0.6667,0.0,0.0,0.6667,0.0,2.6667,0.07,0.033,0.25,0.1179,5.0,2.357,True,tetragonal,4/mmm,139,28.2739,7.0246,0.5028
K4 Te4 Zn2,3,0.0,0.4,0.0,0.4,0.0,0.0,0.4,0.0,0.0,0.2,0.0,1.28,0.5775,0.85,0.4005,1.0,0.4899,True,orthorhombic,mmm,72,36.8811,3.5912,0.8065
B2 Er2 Ni8,3,0.0,0.0,0.0,0.0,0.0,0.1667,0.1667,0.0,0.1667,0.6667,2.3333,0.8,0.2637,0.9,0.2609,6.0,1.7951,True,hexagonal,6/mmm,191,12.2389,9.3356,0.7115
O16 Sb8,2,0.0,0.0,0.0,0.6667,0.0,0.0,0.3333,0.0,0.0,0.0,-2.3333,1.39,0.6553,0.85,0.4007,3.0,1.4142,True,cubic,m-3m,227,12.1505,7.0044,1.0
Cd2 Li2,2,0.0,0.5,0.0,0.0,0.0,0.0,0.0,0.0,0.0,0.5,1.5,0.71,0.355,0.1,0.05,3.0,1.5,True,cubic,m-3m,227,19.1942,5.1627,1.0
Al3 Os2,2,0.0,0.0,0.0,0.0,0.0,0.0,0.0,0.0,0.0,0.4,3.4,0.59,0.289,0.05,0.0245,3.0,1.4697,True,tetragonal,4/mmm,139,13.9544,10.9812,0.419
Nd1 Ni2 Si2,3,0.0,0.0,0.0,0.0,0.0,0.2,0.4,0.0,0.2,0.4,-0.2,0.77,0.306,0.75,0.2739,5.0,1.8547,True,tetragonal,4/mmm,139,15.7634,6.6955,0.724
B2 H12 N2,3,0.0,0.0,0.0,0.0,0.0,0.0,0.125,0.0,0.0,0.0,-0.75,1.0,0.2901,0.6,0.2222,1.0,0.433,True,orthorhombic,mm2,31,8.6677,0.7391,1.0187
Fe8 Mg12 O48 Si12,4,0.0,0.0,0.15,0.6,0.0,0.0,0.15,0.0,0.0,0.1,-1.3,2.13,0.8884,0.9,0.3727,2.0,0.6708,True,cubic,m-3m,230,10.2444,3.7351,1.0
Ba2 F6 Zn1,3,0.0,0.0,0.2222,0.0,0.6667,0.0,0.0,0.0,0.0,0.1111,0.0,3.09,1.3531,1.65,0.6875,4.0,1.663,True,tetragonal,4/mmm,139,16.0152,5.231,0.4832
K16 O12 Zn4,3,0.0,0.5,0.0,0.375,0.0,0.0,0.0,0.0,0.0,0.125,0.0,2.62,1.2167,1.6,0.7426,2.0,0.9682,True,triclinic,-1,2,20.3167,2.7564,0.6291
Co4 O28 P8 Si2,4,0.0,0.0,0.0,0.6667,0.0,0.0,0.0476,0.0,0.0,0.0952,-1.9048,1.56,0.6563,0.75,0.258,2.0,0.6598,True,monoclinic,2/m,15,12.3807,3.1541,0.4044
C4 H24 N16 S4,4,0.0,0.0,0.0,0.0,0.0,0.0,0.0,0.0,0.0,0.0,-2.0,0.84,0.3759,0.75,0.2503,2.0,0.6401,True,monoclinic,2/m,14,9.7318,1.5094,0.3038
Al2 Na6 P4,3,0.0,0.5,0.0,0.0,0.0,0.0,0.0,0.0,0.0,0.0,0.0,1.26,0.5673,0.8,0.3679,0.0,0.0,True,orthorhombic,mmm,72,22.8705,1.9107,0.7531
Hf12 Sb4,2,0.0,0.0,0.0,0.0,0.0,0.0,0.25,0.0,0.0,0.75,2.25,0.75,0.3248,0.1,0.0433,1.0,0.433,True,tetragonal,-4,82,22.4901,12.1315,0.6746
I14 Se2 Ta6,3,0.0,0.0,0.0,0.0909,0.6364,0.0,0.0,0.0,0.0,0.2727,0.5455,1.16,0.5114,0.3,0.0793,2.0,0.575,True,hexagonal,6mm,186,34.1218,6.681,0.5152
Sb16 Zr28,2,0.0,0.0,0.0,0.0,0.0,0.0,0.3636,0.0,0.0,0.6364,1.4545,0.72,0.3464,0.1,0.0481,0.0,0.0,True,monoclinic,2/m,14,22.7503,7.4689,0.7606
Ga12 Y2,2,0.0,0.0,0.0,0.0,0.0,0.0,0.0,0.0,0.0,0.1429,3.0,0.59,0.2065,0.5,0.175,1.0,0.3499,True,tetragonal,4/mmm,125,19.4725,6.1794,0.7854
Ge6 Ni10,2,0.0,0.0,0.0,0.0,0.0,0.0,0.375,0.0,0.0,0.625,-0.25,0.1,0.0484,0.1,0.0484,0.0,0.0,True,monoclinic,2,5,12.4601,8.519,0.9966
Mn12 Si24 Ti12,3,0.0,0.0,0.0,0.0,0.0,0.0,0.5,0.0,0.0,0.5,-0.5,0.36,0.1775,0.3,0.15,1.0,0.5,True,orthorhombic,mmm,55,13.2042,4.9982,0.8141
B1 Pr1 Pt3,3,0.0,0.0,0.0,0.0,0.0,0.2,0.2,0.0,0.2,0.6,2.4,1.15,0.4458,1.0,0.3162,6.0,1.9596,True,tetragonal,4mm,99,16.8833,14.4968,0.7952
Ge4 O14 Sr4 Zn2,4,0.0,0.0,0.1667,0.5833,0.0,0.0,0.1667,0.0,0.0,0.0833,-1.3333,2.49,0.9986,1.4,0.5297,3.0,1.2247,True,tetragonal,-42m,113,15.3453,4.4901,0.654
P1 Rh2,2,0.0,0.0,0.0,0.0,0.0,0.0,0.0,0.0,0.0,0.6667,1.0,0.09,0.0424,0.35,0.165,2.0,0.9428,True,cubic,m-3m,225,14.351,9.1327,1.0
Co1 Gd1 O3,3,0.0,0.0,0.0,0.6,0.0,0.2,0.0,0.0,0.2,0.2,-0.2,2.24,0.9553,1.2,0.4984,6.0,2.3324,True,tetragonal,4/mmm,123,10.987,7.9855,0.9998
B2 Fe3 U1,3,0.1667,0.0,0.0,0.0,0.0,0.0,0.3333,0.0,0.1667,0.5,3.0,0.66,0.2201,0.9,0.325,7.0,2.3393,True,hexagonal,6/mmm,191,10.6514,11.0996,1.8035
Ce1 Co1 Ge3,3,0.0,0.0,0.0,0.0,0.0,0.2,0.6,0.0,0.2,0.2,-1.4,0.89,0.3467,0.6,0.2332,4.0,1.6,True,tetragonal,4mm,107,18.1914,7.6123,0.7472
As4 Cr4,2,0.0,0.0,0.0,0.0,0.0,0.0,0.5,0.0,0.0,0.5,0.0,0.52,0.26,0.25,0.125,0.0,0.0,True,orthorhombic,mmm,62,15.9472,6.6078,0.5674
Au4 Na12 O8,3,0.0,0.5,0.0,0.3333,0.0,0.0,0.0,0.0,0.0,0.1667,0.3333,2.51,1.145,1.2,0.5368,4.0,1.3437,True,tetragonal,4/mmm,136,18.6163,4.4292,0.4726
Ba2 Cu8 S6,3,0.0,0.0,0.125,0.0,0.0,0.0,0.0,0.0,0.0,0.5,0.5,1.69,0.5332,1.15,0.3535,3.0,0.927,True,orthorhombic,mmm,63,18.2216,5.5556,0.3881
Cu2 Ni1 Sn1,3,0.0,0.0,0.0,0.0,0.0,0.0,0.0,0.0,0.0,0.75,0.5,0.06,0.0249,0.1,0.0433,1.0,0.433,True,cubic,m-3m,225,13.9116,9.0864,1.0
S6 Si2 Tl4,3,0.0,0.0,0.0,0.0,0.0,0.0,0.1667,0.0,0.0,0.0,-1.3333,0.96,0.4433,0.9,0.414,3.0,1.4142,True,triclinic,-1,2,29.0502,5.0782,0.8144
Ho1 Se1,2,0.0,0.0,0.0,0.5,0.0,0.5,0.0,0.0,0.5,0.0,0.5,1.32,0.66,0.6,0.3,4.0,2.0,True,cubic,m-3m,225,23.578,8.5883,1.0
B4 Rb12 S12,3,0.0,0.4286,0.0,0.0,0.0,0.0,0.1429,0.0,0.0,0.0,0.0,1.76,0.8234,1.5,0.6884,3.0,1.1606,True,monoclinic,2/m,14,31.0199,2.7791,0.4884
Si4 U2,2,0.3333,0.0,0.0,0.0,0.0,0.0,0.6667,0.0,0.3333,0.0,-0.6667,0.52,0.2451,0.65,0.3064,6.0,2.8284,True,tetragonal,4/mmm,141,17.8971,9.0989,0.5151
N1 Ta1,2,0.0,0.0,0.0,0.0,0.0,0.0,0.0,0.0,0.0,0.5,1.0,1.54,0.77,0.8,0.4,4.0,2.0,True,cubic,m-3m,225,10.8133,14.9691,1.0
Bi1 O1,2,0.0,0.0,0.0,0.5,0.0,0.0,0.0,0.0,0.0,0.0,0.5,1.42,0.71,1.0,0.5,4.0,2.0,True,trigonal,3m,160,21.6299,8.6359,1.0
Lu4 O14 V4,3,0.0,0.0,0.0,0.6364,0.0,0.1818,0.0,0.0,0.1818,0.1818,0.1818,2.17,0.9634,1.15,0.4726,4.0,1.5641,True,cubic,m-3m,227,11.3249,7.5155,1.0
Ga4 O8 Pb2,3,0.0,0.0,0.0,0.5714,0.0,0.0,0.0,0.0,0.0,0.0,0.0,1.63,0.7385,1.2,0.4558,4.0,1.4569,True,orthorhombic,mm2,40,15.7673,6.1782,0.6121
Pt12 Si5,2,0.0,0.0,0.0,0.0,0.0,0.0,0.2941,0.0,0.0,0.7059,0.2353,0.38,0.1731,0.25,0.1139,3.0,1.3669,True,tetragonal,4/m,87,15.1423,16.0071,0.7604
Br6 Nd2,2,0.0,0.0,0.0,0.0,0.75,0.25,0.0,0.0,0.25,0.0,0.0,1.82,0.7881,0.7,0.3031,4.0,1.7321,True,orthorhombic,mmm,63,34.4098,4.6322,0.4446
O8 V4,2,0.0,0.0,0.0,0.6667,0.0,0.0,0.0,0.0,0.0,0.3333,0.3333,1.81,0.8532,0.75,0.3536,2.0,0.9428,True,triclinic,1,1,12.258,3.7452,0.9979
F32 H48 N16 Ti4,4,0.0,0.0,0.0,0.0,0.32,0.0,0.0,0.0,0.0,0.04,-1.12,2.44,0.8277,1.15,0.2498,3.0,0.6928,True,orthorhombic,mmm,56,8.4188,2.1142,0.3996
C4 Ca2 H20 Na4 O22,5,0.0,0.0769,0.0385,0.4231,0.0,0.0,0.0,0.0,0.0,0.0,-1.3846,2.51,0.8205,1.55,0.4625,3.0,0.7498,True,monoclinic,2/m,15,9.6976,1.9504,0.7903
Co2 Hf1 Sn1,3,0.0,0.0,0.0,0.0,0.0,0.0,0.0,0.0,0.0,0.75,1.0,0.66,0.2647,0.2,0.0829,2.0,0.8292,True,cubic,m-3m,225,15.2786,11.2778,1.0
Li2 O1,2,0.0,0.6667,0.0,0.3333,0.0,0.0,0.0,0.0,0.0,0.0,0.0,2.46,1.1597,0.85,0.4007,0.0,0.0,True,trigonal,-3m,166,8.4266,1.9628,1.0
Li1 N2 Na5,3,0.0,0.75,0.0,0.0,0.0,0.0,0.0,0.0,0.0,0.0,0.0,2.11,0.9102,1.15,0.486,1.0,0.4841,True,triclinic,1,1,18.6926,1.6646,0.5773
C2 Mg2 N4,3,0.0,0.0,0.25,0.0,0.0,0.0,0.0,0.0,0.0,0.0,-2.0,1.73,0.7073,0.85,0.3614,1.0,0.433,True,tetragonal,-42m,122,7.788,3.429,1.0138
Al15 Cu18 Mg6,3,0.0,0.0,0.1538,0.0,0.0,0.0,0.0,0.0,0.0,0.4615,2.3846,0.59,0.2121,0.25,0.0841,1.0,0.4985,True,cubic,m-3,200,14.4709,4.9854,1.0
Ho2 Pt4,2,0.0,0.0,0.0,0.0,0.0,0.3333,0.0,0.0,0.3333,0.6667,2.3333,1.05,0.495,0.4,0.1886,2.0,0.9428,True,cubic,m-3m,227,18.8757,16.2777,1.0
C8 H16 N16 O16,4,0.0,0.0,0.0,0.2857,0.0,0.0,0.0,0.0,0.0,0.0,-2.2857,1.24,0.4933,0.45,0.179,1.0,0.4518,True,monoclinic,2/m,14,10.1912,1.7234,0.6189
Ge4 Sc2,2,0.0,0.0,0.0,0.0,0.0,0.0,0.6667,0.0,0.0,0.3333,-1.6667,0.65,0.3064,0.35,0.165,0.0,0.0,True,orthorhombic,mmm,63,18.651,5.6457,0.495
O2 P2 Pr2 Zn2,4,0.0,0.0,0.0,0.25,0.0,0.25,0.0,0.0,0.25,0.25,0.0,2.31,0.8584,1.25,0.4596,6.0,2.2776,True,trigonal,-3m,166,18.357,5.728,1.0
Br8 Sn4,2,0.0,0.0,0.0,0.0,0.6667,0.0,0.0,0.0,0.0,0.0,-2.0,1.0,0.4714,0.3,0.1414,1.0,0.4714,True,orthorhombic,mmm,62,35.9018,4.294,0.3985
O4 Sr2 Ti1,3,0.0,0.0,0.2857,0.5714,0.0,0.0,0.0,0.0,0.0,0.1429,0.0,2.49,1.1494,1.4,0.622,3.0,1.3553,True,tetragonal,4/mmm,139,13.9757,4.8733,0.5674
Al3 Ho1,2,0.0,0.0,0.0,0.0,0.0,0.25,0.0,0.0,0.25,0.0,3.0,0.38,0.1645,0.5,0.2165,5.0,2.1651,True,cubic,m-3m,221,19.1406,5.3327,1.0
Ga4 Sm9,2,0.0,0.0,0.0,0.0,0.0,0.6923,0.0,0.0,0.6923,0.0,3.0,0.64,0.2954,0.55,0.2538,4.0,1.8462,True,tetragonal,4/m,87,28.1142,7.4154,0.5812
Co2 Sc4,2,0.0,0.0,0.0,0.0,0.0,0.0,0.0,0.0,0.0,1.0,2.6667,0.52,0.2451,0.25,0.1179,0.0,0.0,True,tetragonal,4/mmm,140,18.6575,4.4158,1.0
K8 Mg4 O28 V8,4,0.0,0.1667,0.0833,0.5833,0.0,0.0,0.0,0.0,0.0,0.1667,-0.0,2.62,1.1088,1.6,0.6084,2.0,0.9242,True,tetragonal,4/mmm,136,17.5783,2.4906,0.7346
Cd2 O12 Pt2 Sr6,4,0.0,0.0,0.2727,0.5455,0.0,0.0,0.0,0.0,0.0,0.1818,-0.1818,2.49,1.096,1.4,0.6165,4.0,1.616,True,trigonal,-3m,167,14.7485,6.8204,1.0
Na2 O6 Ta2,3,0.0,0.2,0.0,0.6,0.0,0.0,0.0,0.0,0.0,0.2,0.0,2.51,1.1048,1.2,0.5142,4.0,1.5492,True,tetragonal,4/mmm,127,12.2905,6.8077,0.719
O6 W2,2,0.0,0.0,0.0,0.75,0.0,0.0,0.0,0.0,0.0,0.25,-0.5,1.08,0.4677,0.75,0.3248,4.0,1.7321,True,tetragonal,4/mmm,129,14.4586,6.6565,0.7183
O8 Re2 Zn1,3,0.0,0.0,0.0,0.7273,0.0,0.0,0.0,0.0,0.0,0.2727,-0.5455,1.79,0.7256,0.75,0.334,4.0,1.5641,True,trigonal,-3,147,17.8776,4.7778,0.8644
H40 N4 O28 S4 V2,5,0.0,0.0,0.0,0.359,0.0,0.0,0.0,0.0,0.0,0.0256,-1.359,1.81,0.6006,1.1,0.2584,3.0,0.7059,True,monoclinic,2/m,14,9.2473,1.783,0.4997
Nd1 Ni5,2,0.0,0.0,0.0,0.0,0.0,0.1667,0.0,0.0,0.1667,0.8333,2.1667,0.77,0.287,0.5,0.1863,4.0,1.4907,True,hexagonal,6/mmm,191,13.9888,8.6597,1.2496
Ir2 Te2,2,0.0,0.0,0.0,0.5,0.0,0.0,0.5,0.0,0.0,0.5,0.5,0.1,0.05,0.05,0.025,1.0,0.5,True,hexagonal,6/mmm,194,20.7294,12.8096,0.7259
Ba2 O6 Sb1 Y1,4,0.0,0.0,0.2,0.6,0.0,0.0,0.1,0.0,0.0,0.1,-0.8,2.55,1.1081,1.55,0.6569,4.0,1.7436,True,cubic,m-3m,225,20.561,4.6948,1.0
Cs2 F6 Zr1,3,0.0,0.2222,0.0,0.0,0.6667,0.0,0.0,0.0,0.0,0.1111,0.0,3.19,1.4265,2.1,0.8731,4.0,1.7498,True,trigonal,-3m,164,21.0557,4.1274,1.268
Ga1 O6 Sr2 Ta1,4,0.0,0.0,0.2,0.6,0.0,0.0,0.0,0.0,0.0,0.1,0.0,2.49,1.0729,1.4,0.5692,4.0,1.5362,True,tetragonal,4/m,87,12.6672,6.8417,0.9953
Sn2 Ta6,2,0.0,0.0,0.0,0.0,0.0,0.0,0.0,0.0,0.0,0.75,2.75,0.46,0.1992,0.0,0.0,1.0,0.433,True,cubic,m-3m,223,18.8782,14.5477,1.0
B40 H72,2,0.0,0.0,0.0,0.0,0.0,0.0,0.3571,0.0,0.0,0.0,0.4286,0.16,0.0767,0.6,0.2875,1.0,0.4792,True,tetragonal,4,76,10.2999,0.7269,0.985
As4 Ta2,2,0.0,0.0,0.0,0.0,0.0,0.0,0.6667,0.0,0.0,0.3333,-0.3333,0.68,0.3206,0.3,0.1414,2.0,0.9428,True,monoclinic,2/m,12,18.3712,9.9665,0.484
Ba6 O6 S8 V4,4,0.0,0.0,0.25,0.25,0.0,0.0,0.0,0.0,0.0,0.1667,0.1667,2.55,0.9568,1.55,0.575,4.0,1.4907,True,hexagonal,6,173,23.3616,4.0878,1.6847
Mn2 Pu1 Si2,3,0.2,0.0,0.0,0.0,0.0,0.0,0.4,0.0,0.2,0.4,0.0,0.62,0.237,0.65,0.2408,6.0,2.245,True,tetragonal,4/mmm,139,15.0283,9.0616,0.6623
Nb8 P20,2,0.0,0.0,0.0,0.0,0.0,0.0,0.0,0.0,0.0,0.2857,-0.7143,0.59,0.2665,0.45,0.2033,2.0,0.9035,True,orthorhombic,mmm,62,16.0827,5.0251,0.199
Al2 Ba1 Si2,3,0.0,0.0,0.2,0.0,0.0,0.0,0.4,0.0,0.0,0.0,0.0,1.01,0.3695,1.05,0.3957,3.0,1.2,True,tetragonal,4/mmm,139,22.9549,3.5802,0.5974
Co1 Ge3 Nd1,3,0.0,0.0,0.0,0.0,0.0,0.2,0.6,0.0,0.2,0.2,-1.4,0.87,0.3388,0.6,0.2332,4.0,1.6,True,tetragonal,4mm,107,18.555,7.537,0.7425
In3 Tb1,2,0.0,0.0,0.0,0.0,0.0,0.25,0.0,0.0,0.25,0.0,3.0,1.78,0.7708,0.2,0.0866,3.0,1.299,True,cubic,m-3m,221,25.2087,8.2896,1.0
O48 P8 W4 Zr8,4,0.0,0.0,0.0,0.7059,0.0,0.0,0.0,0.0,0.0,0.1765,-1.0588,2.11,0.7521,0.95,0.3419,4.0,1.2725,True,orthorhombic,mmm,60,16.473,3.6777,0.7434
Nb8 Si4 Te16,3,0.0,0.0,0.0,0.5714,0.0,0.0,0.7143,0.0,0.0,0.2857,-0.2857,0.5,0.2185,0.35,0.1129,2.0,0.6999,True,monoclinic,2/m,14,27.9518,6.1469,0.414
Pb2 Pd4 Y4,3,0.0,0.0,0.0,0.0,0.0,0.0,0.0,0.0,0.0,0.8,2.4,1.11,0.5036,0.4,0.196,1.0,0.4,True,tetragonal,4/mmm,127,23.0195,8.6254,0.4578
Li7 O6 Sb1,3,0.0,0.5,0.0,0.4286,0.0,0.0,0.0714,0.0,0.0,0.0,-0.5714,2.46,1.1819,0.85,0.4206,3.0,0.7726,True,trigonal,3,146,9.6198,3.2839,1.0
Co1 O2 Pd1,3,0.0,0.0,0.0,0.5,0.0,0.0,0.0,0.0,0.0,0.5,0.0,1.56,0.7091,0.8,0.3879,3.0,1.299,True,trigonal,-3m,166,10.5682,7.7522,1.0
Er2 O8 Ta2,3,0.0,0.0,0.0,0.6667,0.0,0.1667,0.0,0.0,0.1667,0.1667,0.0,2.2,0.9787,1.15,0.4793,6.0,2.4267,True,monoclinic,2/m,13,12.3683,9.2236,0.9331
B4 Ir4 Li4,3,0.0,0.3333,0.0,0.0,0.0,0.0,0.3333,0.0,0.0,0.3333,2.3333,1.22,0.5414,0.6,0.2625,4.0,1.8856,True,orthorhombic,mmm,70,12.5133,9.2878,0.9107
Cu8 K3 S6,3,0.0,0.1765,0.0,0.0,0.0,0.0,0.0,0.0,0.0,0.4706,0.4118,1.76,0.6055,1.2,0.4124,1.0,0.4779,True,monoclinic,2/m,12,18.6045,4.295,0.3907