formula,numberOfSpecies,fracActinoid,fracAlkali,fracAlkaline,fracChalcogen,fracHalogen,fracLanthanoid,fracMetalloid,fracNobleGas,fracRareEarth,fracTransitionMetal,electronsPerAtom,electronegativityRange,electronegativityStd,radiiRange,radiiStd,rowRange,rowStd,ordered,crystalSystem,pointGroup,spaceGroupNumber,volumePerSite,density,c_a
Na4 O6 S2,3,0.0,0.3333,0.0,0.5,0.0,0.0,0.0,0.0,0.0,0.0,-1.0,2.51,1.1238,1.2,0.5375,1.0,0.5,True,trigonal,-3,147,13.6461,2.5563,0.8909
Fe8 Si14 Zr8,3,0.0,0.0,0.0,0.0,0.0,0.0,0.4667,0.0,0.0,0.5333,-0.2667,0.57,0.2425,0.45,0.1949,2.0,0.8327,True,tetragonal,4/mmm,139,14.3882,6.0388,0.5262
Br2 H8 N2,3,0.0,0.0,0.0,0.0,0.1667,0.0,0.0,0.0,0.0,0.0,-1.3333,0.84,0.3778,0.9,0.3387,3.0,1.1055,True,tetragonal,4/mmm,129,12.397,2.1865,0.7443
Li6 O24 P6 V4,4,0.0,0.15,0.0,0.6,0.0,0.0,0.0,0.0,0.0,0.1,-1.0,2.46,0.9622,0.85,0.346,2.0,0.6538,True,monoclinic,2/m,15,11.5992,2.9178,1.0188
Ag4 O8 Si2 Zn2,4,0.0,0.0,0.0,0.5,0.0,0.0,0.125,0.0,0.0,0.375,-1.0,1.79,0.7981,1.0,0.4319,3.0,1.2686,True,monoclinic,m,7,13.5803,5.7046,0.7878
Mo6 Pt2,2,0.0,0.0,0.0,0.0,0.0,0.0,0.0,0.0,0.0,1.0,3.5,0.12,0.052,0.1,0.0433,1.0,0.433,True,cubic,m-3m,223,15.827,12.6663,1.0
Ni4 Ta2 Te6,3,0.0,0.0,0.0,0.5,0.0,0.0,0.5,0.0,0.0,0.5,0.5,0.6,0.213,0.1,0.0344,2.0,0.6872,True,monoclinic,2/m,11,24.046,7.8395,0.3528
Al1 Gd1,2,0.0,0.0,0.0,0.0,0.0,0.5,0.0,0.0,0.5,0.0,3.0,0.41,0.205,0.55,0.275,5.0,2.5,True,cubic,m-3m,221,24.0314,6.3651,1.0
Mn4 Tb2,2,0.0,0.0,0.0,0.0,0.0,0.3333,0.0,0.0,0.3333,0.6667,2.3333,1.55,0.7307,0.35,0.165,4.0,1.8856,True,cubic,m-3m,227,15.9205,9.3455,1.0
La2 P10,2,0.0,0.0,0.0,0.0,0.0,0.1667,0.0,0.0,0.1667,0.1667,-2.0,1.09,0.4062,0.95,0.354,5.0,1.8634,True,monoclinic,2/m,11,21.0228,3.8674,0.4941
Na10 O32 W8 Y2,4,0.0,0.1923,0.0,0.6154,0.0,0.0,0.0,0.0,0.0,0.1923,-0.3077,2.51,1.0205,1.2,0.5147,4.0,1.4656,True,tetragonal,4/m,88,14.9572,5.1035,1.0
Nd4 Pd4 Sn4,3,0.0,0.0,0.0,0.0,0.0,0.3333,0.0,0.0,0.3333,0.3333,0.3333,1.06,0.4538,0.45,0.2014,3.0,1.4142,True,orthorhombic,mmm,62,23.8617,8.5682,0.5852
C8 H4 O8,3,0.0,0.0,0.0,0.4,0.0,0.0,0.0,0.0,0.0,0.0,-2.6,1.24,0.5095,0.45,0.1661,1.0,0.4,True,monoclinic,2/m,11,11.0881,1.7081,0.9295
Ag2 O8 Re2,3,0.0,0.0,0.0,0.6667,0.0,0.0,0.0,0.0,0.0,0.3333,-0.5,1.54,0.7189,1.0,0.4187,4.0,1.675,True,triclinic,-1,2,15.0002,6.6065,0.7868
Ge32 Mn16 Nb28,3,0.0,0.0,0.0,0.0,0.0,0.0,0.4211,0.0,0.0,0.5789,0.5789,0.46,0.2122,0.2,0.0916,1.0,0.4824,True,orthorhombic,mmm,62,15.8116,8.0214,0.3156
Co6 Ho7 Sn23,3,0.0,0.0,0.0,0.0,0.0,0.1944,0.0,0.0,0.1944,0.1667,-1.6389,0.73,0.2839,0.4,0.132,4.0,1.3202,True,trigonal,-3m,164,22.5045,8.6873,0.9772
Cd4 O40 P8 V8,4,0.0,0.0,0.0,0.6667,0.0,0.0,0.0,0.0,0.0,0.2,-0.9333,1.81,0.7577,0.95,0.331,3.0,0.9522,True,monoclinic,2/m,14,12.3795,3.901,0.3
Lu4 Pb2 Pd4,3,0.0,0.0,0.0,0.0,0.0,0.4,0.0,0.0,0.4,0.4,2.4,1.06,0.4792,0.4,0.1806,1.0,0.4899,True,tetragonal,4/mmm,127,21.7905,11.7351,0.446
Dy1 Pt1 Sb1,3,0.0,0.0,0.0,0.0,0.0,0.3333,0.3333,0.0,0.3333,0.3333,0.6667,1.06,0.4553,0.4,0.17,3.0,1.2472,True,cubic,-43m,216,24.1251,10.9978,1.0
As1 Se3 Tl3,3,0.0,0.0,0.0,0.4286,0.0,0.0,0.1429,0.0,0.0,0.0,-0.8571,0.93,0.4318,0.75,0.3712,2.0,0.9897,True,trigonal,3m,160,31.4743,6.9713,1.0
Ba2 Co2 S4,3,0.0,0.0,0.25,0.0,0.0,0.0,0.0,0.0,0.0,0.25,0.0,1.69,0.6925,1.15,0.4697,3.0,1.2247,True,tetragonal,4/mmm,129,21.4321,5.0437,0.4895
As4 Mn4 Na4 O16,4,0.0,0.1429,0.0,0.5714,0.0,0.0,0.1429,0.0,0.0,0.1429,-1.1429,2.51,0.9916,1.2,0.4557,2.0,0.8806,True,orthorhombic,mmm,62,13.4076,3.8367,0.4759
As4 Br1 K1 O6,4,0.0,0.0833,0.0,0.5,0.0833,0.0,0.3333,0.0,0.0,0.0,-2.0,2.62,0.8126,1.6,0.456,2.0,1.0,True,hexagonal,6/mmm,191,19.0479,3.7391,0.5793
Ni2 O8 S2,3,0.0,0.0,0.0,0.6667,0.0,0.0,0.0,0.0,0.0,0.1667,-1.3333,1.53,0.5956,0.75,0.2893,2.0,0.7638,True,orthorhombic,mmm,63,11.11,3.8551,0.7372
Ba2 Cu3 O7 Sm1,4,0.0,0.0,0.1538,0.5385,0.0,0.0769,0.0,0.0,0.0769,0.2308,-0.0769,2.55,1.0457,1.55,0.6016,6.0,1.946,True,orthorhombic,mmm,47,13.9275,6.6735,0.3271
Al3 Si2 Tm2,3,0.0,0.0,0.0,0.0,0.0,0.2857,0.2857,0.0,0.2857,0.0,1.0,0.65,0.2463,0.65,0.2605,5.0,2.2588,True,monoclinic,2/m,12,18.6136,6.0534,0.6108
Er1 Ni1 Sb1,3,0.0,0.0,0.0,0.0,0.0,0.3333,0.3333,0.0,0.3333,0.3333,0.6667,0.81,0.3535,0.4,0.17,4.0,1.6997,True,cubic,-43m,216,20.9386,9.1918,1.0
As4 Th2,2,0.3333,0.0,0.0,0.0,0.0,0.0,0.6667,0.0,0.3333,0.0,-0.6667,0.88,0.4148,0.65,0.3064,5.0,2.357,True,tetragonal,4/mmm,129,24.2614,8.7124,0.4831
Cd8 Ge10 H2 Li2 O30,5,0.0,0.0385,0.0,0.5769,0.0,0.0,0.1923,0.0,0.0,0.1538,-1.6154,2.46,0.8276,1.3,0.4102,4.0,1.2409,True,triclinic,-1,2,13.3486,5.0753,0.5764
O12 Sb8,2,0.0,0.0,0.0,0.6,0.0,0.0,0.4,0.0,0.0,0.0,-2.4,1.39,0.681,0.85,0.4164,3.0,1.4697,True,orthorhombic,mmm,56,18.0766,5.3558,0.4114
Dy2 Ge2,2,0.0,0.0,0.0,0.0,0.0,0.5,0.5,0.0,0.5,0.0,-0.5,0.79,0.395,0.5,0.25,4.0,2.0,True,orthorhombic,mmm,63,22.9443,8.5088,0.6844
Mo1 Se2,2,0.0,0.0,0.0,0.6667,0.0,0.0,0.0,0.0,0.0,0.3333,0.0,0.39,0.1838,0.3,0.1414,1.0,0.4714,True,trigonal,3m,160,23.5372,5.9699,1.0
Cu2 Nb2 Rb4 Se8,4,0.0,0.25,0.0,0.5,0.0,0.0,0.0,0.0,0.0,0.25,0.125,1.73,0.7168,1.2,0.4948,1.0,0.4841,True,orthorhombic,mmm,70,32.5793,4.0981,0.4493
Dy2 Si4,2,0.0,0.0,0.0,0.0,0.0,0.3333,0.6667,0.0,0.3333,0.0,-1.6667,0.68,0.3206,0.65,0.3064,5.0,2.357,True,tetragonal,4/mmm,141,19.2371,6.2919,0.4923
Er1 Ge2 Ni2,3,0.0,0.0,0.0,0.0,0.0,0.2,0.4,0.0,0.2,0.4,-0.2,0.77,0.2915,0.5,0.1855,4.0,1.6,True,tetragonal,4/mmm,139,16.0101,8.9182,0.7137
Ru2,1,0.0,0.0,0.0,0.0,0.0,0.0,0.0,0.0,0.0,1.0,3.0,0.0,0.0,0.0,0.0,0.0,0.0,True,hexagonal,6/mmm,194,13.9409,12.0387,0.6381
B16 C8 Y8,3,0.0,0.0,0.0,0.0,0.0,0.0,0.5,0.0,0.0,0.25,1.25,1.33,0.4766,1.1,0.4373,3.0,1.299,True,tetragonal,4/mmm,135,10.84,4.6928,0.9073
Er4 O56 P20,3,0.0,0.0,0.0,0.7,0.0,0.05,0.0,0.0,0.05,0.0,-2.0,2.2,0.6739,1.15,0.2852,6.0,1.3219,True,orthorhombic,mmm,62,12.8445,3.5301,0.689
C16 K2,2,0.0,0.1111,0.0,0.0,0.0,0.0,0.0,0.0,0.0,0.0,-3.4444,1.73,0.5437,1.5,0.4714,2.0,0.6285,True,monoclinic,2/m,15,12.7909,1.95,0.4527
Pd2 S8 U4,3,0.2857,0.0,0.0,0.0,0.0,0.0,0.0,0.0,0.2857,0.1429,0.8571,1.2,0.5238,0.75,0.3315,6.0,2.6186,True,orthorhombic,mm2,43,20.6194,8.1768,0.8645
Cr8 Mn12 O48 Si12,4,0.0,0.0,0.0,0.6,0.0,0.0,0.15,0.0,0.0,0.25,-1.2,1.89,0.8537,0.8,0.3491,2.0,0.8529,True,cubic,m-3m,230,10.6284,4.2579,1.0
Ge6 La2 Ti2,3,0.0,0.0,0.0,0.0,0.0,0.2,0.6,0.0,0.2,0.4,-1.0,0.91,0.3655,0.7,0.2713,4.0,1.6,True,hexagonal,6/mmm,194,20.6517,6.508,1.0707
Ba2 Mg1 O6 W1,4,0.0,0.0,0.3,0.6,0.0,0.0,0.0,0.0,0.0,0.1,-0.2,2.55,1.0864,1.55,0.6262,4.0,1.7916,True,cubic,m-3m,225,13.9547,6.8874,1.0
Fe2 O6 Sr3,3,0.0,0.0,0.2727,0.5455,0.0,0.0,0.0,0.0,0.0,0.1818,-0.1818,2.49,1.1035,1.4,0.6106,3.0,1.3361,True,tetragonal,4/mmm,139,14.4083,4.93,0.3778
Co2 Mn2 O6,3,0.0,0.0,0.0,0.6,0.0,0.0,0.0,0.0,0.0,0.4,-0.4,1.89,0.8515,0.8,0.38,2.0,0.9798,True,trigonal,-3,148,10.1717,5.2851,1.0
Cl6 Cs2 Ti1,3,0.0,0.2222,0.0,0.0,0.6667,0.0,0.0,0.0,0.0,0.1111,0.0,2.37,1.02,1.6,0.6532,3.0,1.2273,True,cubic,m-3m,225,32.7744,2.9634,1.0
Ca4 Ir2 Mn2 O12,4,0.0,0.0,0.2,0.6,0.0,0.0,0.0,0.0,0.0,0.2,-0.3,2.44,1.0296,1.2,0.5022,4.0,1.3416,True,monoclinic,2/m,14,11.9712,5.8718,0.7039
Er16 Se24,2,0.0,0.0,0.0,0.6,0.0,0.4,0.0,0.0,0.4,0.0,0.0,1.31,0.6418,0.6,0.2939,4.0,1.9596,True,tetragonal,-42m,122,24.1464,7.859,2.5978
Al3 Pd2,2,0.0,0.0,0.0,0.0,0.0,0.0,0.0,0.0,0.0,0.4,2.6,0.59,0.289,0.15,0.0735,2.0,0.9798,True,trigonal,-3m,164,16.2692,5.9971,0.8124
Gd1 Pt2 Si2,3,0.0,0.0,0.0,0.0,0.0,0.2,0.4,0.0,0.2,0.4,-0.2,1.08,0.3945,0.7,0.2557,5.0,1.9391,True,tetragonal,4/mmm,139,17.593,11.3941,0.7274
C6 Ca6 Cl4,3,0.0,0.0,0.375,0.0,0.25,0.0,0.0,0.0,0.0,0.0,-1.0,2.16,0.9001,1.1,0.4885,2.0,0.866,True,orthorhombic,mmm,63,18.8552,2.5008,0.3338
Mn3 N2,2,0.0,0.0,0.0,0.0,0.0,0.0,0.0,0.0,0.0,0.6,-0.0,1.49,0.7299,0.75,0.3674,2.0,0.9798,True,tetragonal,4/mmm,139,9.8749,6.4851,0.4504
Cr1,1,0.0,0.0,0.0,0.0,0.0,0.0,0.0,0.0,0.0,1.0,3.0,0.0,0.0,0.0,0.0,0.0,0.0,True,cubic,m-3m,225,11.9029,7.2538,1.0
Co1 Ge1 Mn2,3,0.0,0.0,0.0,0.0,0.0,0.0,0.25,0.0,0.0,0.75,0.5,0.46,0.2028,0.15,0.0612,0.0,0.0,True,cubic,-43m,216,11.7826,8.507,1.0
O54 P18 Rh6,3,0.0,0.0,0.0,0.6923,0.0,0.0,0.0,0.0,0.0,0.0769,-1.8462,1.25,0.567,0.75,0.2402,3.0,0.8427,True,monoclinic,m,9,12.4798,3.4782,0.8091
Pt4 Yb4 Zn4,3,0.0,0.0,0.0,0.0,0.0,0.3333,0.0,0.0,0.3333,0.6667,2.3333,2.28,0.9614,0.4,0.1886,4.0,1.633,True,orthorhombic,mmm,62,19.6002,12.2431,0.5276
Pt3 Sm3 Sn3,3,0.0,0.0,0.0,0.0,0.0,0.3333,0.0,0.0,0.3333,0.3333,0.3333,1.11,0.4665,0.5,0.216,3.0,1.2472,True,hexagonal,-6m2,189,22.8247,11.256,1.8492
B4 C4 Sm2,3,0.0,0.0,0.0,0.0,0.0,0.2,0.4,0.0,0.2,0.0,0.2,1.38,0.5045,1.15,0.4352,6.0,2.4,True,tetragonal,4/mmm,127,10.7889,6.0334,0.6925
Au2 Na4,2,0.0,0.6667,0.0,0.0,0.0,0.0,0.0,0.0,0.0,0.3333,1.6667,1.61,0.759,0.45,0.2121,3.0,1.4142,True,tetragonal,4/mmm,140,25.8865,5.1947,0.9413
As24 Ca16,2,0.0,0.0,0.4,0.0,0.0,0.0,0.6,0.0,0.0,0.0,-1.0,1.18,0.5781,0.65,0.3184,0.0,0.0,True,monoclinic,2/m,13,24.3248,4.1631,0.4245
Ba2 Ho1 O6 Ru1,4,0.0,0.0,0.2,0.6,0.0,0.1,0.0,0.0,0.1,0.1,-0.2,2.55,1.1007,1.55,0.6455,6.0,2.1932,True,cubic,m-3m,225,14.9603,7.0666,1.0
As4 Ba2 Cu4 O16,4,0.0,0.0,0.0769,0.6154,0.0,0.0,0.1538,0.0,0.0,0.1538,-1.2308,2.55,0.8463,1.55,0.4647,4.0,1.2686,True,monoclinic,2/m,14,14.7168,4.7065,0.5259
O8 V2 Yb2,3,0.0,0.0,0.0,0.6667,0.0,0.1667,0.0,0.0,0.1667,0.1667,0.0,3.44,1.3239,1.15,0.4625,6.0,2.2111,True,tetragonal,4/mmm,141,14.1832,5.6193,1.0
Be2 C4 N4,3,0.0,0.0,0.2,0.0,0.0,0.0,0.0,0.0,0.0,0.0,-2.4,1.47,0.5368,0.4,0.1517,0.0,0.0,True,tetragonal,4mm,102,15.4652,1.311,1.0016
C1 Mn1 N2,3,0.0,0.0,0.0,0.0,0.0,0.0,0.0,0.0,0.0,0.25,-2.0,1.49,0.6083,0.75,0.3182,2.0,0.866,True,trigonal,-3m,166,11.7602,3.3522,1.0
O56 Si16 Sm16,3,0.0,0.0,0.0,0.6364,0.0,0.1818,0.1818,0.0,0.1818,0.0,-1.4545,2.27,0.9425,1.25,0.4778,6.0,2.26,True,tetragonal,4,76,12.7789,5.539,0.2744
Hg1 In2 Te4,3,0.0,0.0,0.0,0.5714,0.0,0.0,0.5714,0.0,0.0,0.1429,-0.1429,0.32,0.1397,0.15,0.0678,1.0,0.3499,True,tetragonal,-4,82,37.3661,5.9716,0.8211
Zn4 Zr2,2,0.0,0.0,0.0,0.0,0.0,0.0,0.0,0.0,0.0,1.0,2.6667,0.32,0.1508,0.2,0.0943,1.0,0.4714,True,cubic,m-3m,227,16.9992,7.23,1.0
Cu12 Sb4 Se12,3,0.0,0.0,0.0,0.4286,0.0,0.0,0.1429,0.0,0.0,0.4286,-0.4286,0.65,0.3071,0.3,0.1161,1.0,0.3499,True,orthorhombic,mmm,62,21.0374,6.1937,0.6534
Ag2 La2 O10 Ti3,4,0.0,0.0,0.0,0.5882,0.0,0.1176,0.0,0.0,0.1176,0.4118,-0.0,2.34,0.9634,1.35,0.5202,6.0,2.0017,True,tetragonal,4/mmm,139,12.849,6.0599,0.2596
F3 Mo1 Na3 O3,4,0.0,0.3,0.0,0.3,0.3,0.0,0.0,0.0,0.0,0.1,-0.2,3.05,1.2745,1.3,0.5788,3.0,0.9165,True,trigonal,3,146,13.9361,3.216,1.0
Au2 Er1 Si2,3,0.0,0.0,0.0,0.0,0.0,0.2,0.4,0.0,0.2,0.4,0.2,1.3,0.4854,0.65,0.2379,5.0,1.9391,True,tetragonal,4/mmm,139,18.5748,11.0381,0.7163
O56 P20 Pr4,3,0.0,0.0,0.0,0.7,0.0,0.05,0.0,0.0,0.05,0.0,-2.0,2.31,0.6887,1.25,0.3029,6.0,1.3219,True,monoclinic,2/m,14,13.6067,3.1716,0.6753
Ge2 La2 Ru2,3,0.0,0.0,0.0,0.0,0.0,0.3333,0.3333,0.0,0.3333,0.6667,0.6667,1.1,0.4801,0.7,0.3189,4.0,1.6997,True,tetragonal,4/mmm,129,22.3806,7.7315,0.6165
F42 Rb10 Zr8,3,0.0,0.1667,0.0,0.0,0.7,0.0,0.0,0.0,0.0,0.1333,0.0,3.16,1.3514,1.85,0.7186,3.0,1.3748,True,monoclinic,2,4,17.8138,3.7013,0.6829
F4 H20 N4 O12 P4,5,0.0,0.0,0.0,0.2727,0.0909,0.0,0.0,0.0,0.0,0.0,-1.6364,1.79,0.6636,0.75,0.2349,2.0,0.6428,True,triclinic,-1,2,9.5595,1.8479,0.9514
Ga8 Nb10,2,0.0,0.0,0.0,0.0,0.0,0.0,0.0,0.0,0.0,0.5556,4.1111,0.21,0.1043,0.15,0.0745,1.0,0.4969,True,hexagonal,6/mmm,193,16.9129,8.1101,1.4638
K4 P4 Se24,3,0.0,0.125,0.0,0.75,0.0,0.0,0.0,0.0,0.0,0.0,-1.75,1.73,0.5675,1.2,0.3577,1.0,0.3307,True,orthorhombic,mm2,29,31.151,3.6237,0.5832
Ba4 Mn4 O28 P8,4,0.0,0.0,0.0909,0.6364,0.0,0.0,0.0,0.0,0.0,0.0909,-1.4545,2.55,0.8955,1.55,0.4729,4.0,1.2129,True,monoclinic,2/m,14,14.6758,3.7669,0.4292
Ba2 Hf2 N4,3,0.0,0.0,0.25,0.0,0.0,0.0,0.0,0.0,0.0,0.25,0.0,2.15,0.9832,1.5,0.6364,4.0,2.0,True,tetragonal,4/mmm,129,18.2746,7.8106,0.4892
Ga2 Tb2,2,0.0,0.0,0.0,0.0,0.0,0.5,0.0,0.0,0.5,0.0,3.0,1.81,0.905,0.45,0.225,4.0,2.0,True,orthorhombic,mmm,63,24.4399,7.7676,0.6942
Be2 Zr1,2,0.0,0.0,0.6667,0.0,0.0,0.0,0.0,0.0,0.0,0.3333,2.6667,0.24,0.1131,0.5,0.2357,3.0,1.4142,True,hexagonal,6/mmm,191,13.6529,4.4291,1.1819
Be6 Cd8 O24 S2 Si6,5,0.0,0.0,0.1304,0.5217,0.0,0.0,0.1304,0.0,0.0,0.1739,-1.0435,1.87,0.8436,0.95,0.3591,3.0,1.1204,True,cubic,-43m,218,13.6373,4.1559,1.0
Al12 I4 Te12,3,0.0,0.0,0.0,0.4286,0.1429,0.0,0.4286,0.0,0.0,0.0,0.2857,1.05,0.3617,0.15,0.0742,2.0,0.9897,True,orthorhombic,mmm,62,36.8842,3.7987,0.1949
O28 P8 Si4,3,0.0,0.0,0.0,0.7,0.0,0.0,0.1,0.0,0.0,0.0,-2.4,1.54,0.6216,0.5,0.2002,1.0,0.4583,True,cubic,m-3,205,11.5637,2.9011,1.0
S4 Sn2 Ta2,3,0.0,0.0,0.0,0.0,0.0,0.0,0.0,0.0,0.0,0.25,-0.75,1.08,0.4551,0.45,0.225,3.0,1.299,True,hexagonal,6/mmm,194,21.3233,7.0824,0.1893
Mn20 O48 Si12,3,0.0,0.0,0.0,0.6,0.0,0.0,0.15,0.0,0.0,0.25,-1.3,1.89,0.8682,0.8,0.3491,2.0,0.8529,True,cubic,m-3m,230,10.7717,4.2466,1.0
Cs4 Mo4 O24 P4,4,0.0,0.1111,0.0,0.6667,0.0,0.0,0.0,0.0,0.0,0.1111,-1.1111,2.65,0.897,2.0,0.6419,4.0,1.4487,True,orthorhombic,mmm,70,16.5137,3.9755,0.8651
Co4 Li4 O16 P4,4,0.0,0.1429,0.0,0.5714,0.0,0.0,0.0,0.0,0.0,0.1429,-1.1429,2.46,0.932,0.85,0.3533,2.0,0.7284,True,monoclinic,m,7,12.5744,3.0344,1.0468
Dy4 Ge4 Ru4,3,0.0,0.0,0.0,0.0,0.0,0.3333,0.3333,0.0,0.3333,0.3333,0.6667,0.98,0.4243,0.5,0.2248,4.0,1.6997,True,orthorhombic,mmm,62,18.902,9.8453,0.6115
Au8 Ga4,2,0.0,0.0,0.0,0.0,0.0,0.0,0.0,0.0,0.0,0.6667,3.0,0.73,0.3441,0.05,0.0236,2.0,0.9428,True,orthorhombic,mm2,36,17.891,14.3446,0.368
In1 Pt2 Sc1,3,0.0,0.0,0.0,0.0,0.0,0.0,0.0,0.0,0.0,0.75,2.5,0.92,0.3848,0.25,0.1139,2.0,0.8292,True,cubic,m-3m,225,17.9926,12.6886,1.0
Br1 Ca2 N1,3,0.0,0.0,0.5,0.0,0.25,0.0,0.0,0.0,0.0,0.0,0.0,2.04,1.0004,1.15,0.4835,2.0,0.866,True,trigonal,-3m,166,20.8163,3.4714,1.0
Ba2 Ni20 P12,3,0.0,0.0,0.0588,0.0,0.0,0.0,0.0,0.0,0.0,0.5882,0.2353,1.3,0.2956,1.15,0.2739,3.0,0.73,True,orthorhombic,mmm,64,13.458,6.6056,0.7329
Ba1 Ni1 O5 Sm2,4,0.0,0.0,0.1111,0.5556,0.0,0.2222,0.0,0.0,0.2222,0.1111,-0.0,2.55,1.1002,1.55,0.6263,6.0,2.4944,True,orthorhombic,mmm,71,14.7573,7.2107,0.5626
Nb8 Se4,2,0.0,0.0,0.0,0.3333,0.0,0.0,0.0,0.0,0.0,0.6667,2.6667,0.95,0.4478,0.3,0.1414,1.0,0.4714,True,monoclinic,2/m,12,19.0565,7.6905,0.3672
Hg4 Pd4,2,0.0,0.0,0.0,0.0,0.0,0.0,0.0,0.0,0.0,1.0,1.5,0.2,0.1,0.1,0.05,1.0,0.5,True,cubic,23,198,18.8564,13.518,1.0
Cu2 Th4,2,0.6667,0.0,0.0,0.0,0.0,0.0,0.0,0.0,0.6667,0.3333,3.3333,0.6,0.2828,0.45,0.2121,5.0,2.357,True,tetragonal,4/mmm,140,25.5465,11.4319,0.9663
In2 O8 Ta2,3,0.0,0.0,0.0,0.6667,0.0,0.0,0.0,0.0,0.0,0.1667,0.0,1.94,0.8524,0.95,0.4252,4.0,1.675,True,monoclinic,2/m,13,12.5241,7.95,0.8312
H8 O20 Si2 U4,4,0.1176,0.0,0.0,0.5882,0.0,0.0,0.0588,0.0,0.1176,0.0,-0.9412,2.06,0.7812,1.5,0.4386,8.0,2.3749,True,orthorhombic,mmm,70,13.0015,5.0199,0.6829
Ga3 Pt2,2,0.0,0.0,0.0,0.0,0.0,0.0,0.0,0.0,0.0,0.4,2.6,0.47,0.2303,0.05,0.0245,2.0,0.9798,True,trigonal,-3m,164,16.9985,11.7095,0.8048
Al6 Nd2,2,0.0,0.0,0.0,0.0,0.0,0.25,0.0,0.0,0.25,0.0,3.0,0.47,0.2035,0.6,0.2598,5.0,2.1651,True,hexagonal,6/mmm,194,21.186,4.4125,1.3902
Cl32 Si12,2,0.0,0.0,0.0,0.0,0.7273,0.0,0.2727,0.0,0.0,0.0,-1.8182,1.26,0.5612,0.1,0.0445,0.0,0.0,True,cubic,-43m,219,34.7551,1.5979,1.0
H1 La2 Li1 O3,4,0.0,0.1429,0.0,0.4286,0.0,0.2857,0.0,0.0,0.2857,0.2857,-0.0,2.46,1.1025,1.7,0.6576,7.0,2.8212,True,orthorhombic,mmm,71,12.5655,6.3009,0.5137
Cu3 Se4 Ta1,3,0.0,0.0,0.0,0.5,0.0,0.0,0.0,0.0,0.0,0.5,0.375,1.05,0.3945,0.3,0.1166,2.0,0.6614,True,cubic,-43m,215,23.297,6.1247,1.0
P6 Pr2 Zn6,3,0.0,0.0,0.0,0.0,0.0,0.1429,0.0,0.0,0.1429,0.4286,0.0,1.06,0.3727,0.85,0.2864,5.0,1.6413,True,hexagonal,6/mmm,194,20.5974,4.9529,0.2014
Ba4 Mg8 Sn8,3,0.0,0.0,0.6,0.0,0.0,0.0,0.0,0.0,0.0,0.0,-0.4,1.07,0.4163,0.7,0.2709,3.0,1.2,True,tetragonal,4/mmm,129,29.9817,4.6895,0.2021
Cr4 La4 O4 S8,4,0.0,0.0,0.0,0.2,0.0,0.2,0.0,0.0,0.2,0.4,0.0,2.34,0.8127,1.35,0.4565,6.0,2.0976,True,orthorhombic,mmm,62,18.1043,4.9718,0.3325
B2 Co1 W2,3,0.0,0.0,0.0,0.0,0.0,0.0,0.4,0.0,0.0,0.6,3.2,0.48,0.192,0.5,0.2449,4.0,1.7889,True,orthorhombic,mmm,71,10.3927,14.3238,0.7047
Ho4 Ni4,2,0.0,0.0,0.0,0.0,0.0,0.5,0.0,0.0,0.5,0.5,2.5,0.68,0.34,0.4,0.2,4.0,2.0,True,orthorhombic,mmm,62,19.6233,9.4616,0.5921
In2 Pr4,2,0.0,0.0,0.0,0.0,0.0,0.6667,0.0,0.0,0.6667,0.0,3.0,0.65,0.3064,0.3,0.1414,3.0,1.4142,True,hexagonal,6/mmm,194,31.9364,6.8743,0.8006
S4 Tb2,2,0.0,0.0,0.0,0.0,0.0,0.3333,0.0,0.0,0.3333,0.0,-0.3333,2.58,1.2162,0.75,0.3536,5.0,2.357,True,monoclinic,2/m,11,19.9829,6.1785,0.4836
W1,1,0.0,0.0,0.0,0.0,0.0,0.0,0.0,0.0,0.0,1.0,4.0,0.0,0.0,0.0,0.0,0.0,0.0,True,cubic,m-3m,225,16.5248,18.4737,1.0
F6 Rb3 Tl1,3,0.0,0.3,0.0,0.0,0.6,0.0,0.0,0.0,0.0,0.0,-0.2,3.16,1.4666,1.85,0.8601,4.0,1.6155,True,tetragonal,4/mmm,139,24.0273,3.9723,1.0047
Al2 Au1,2,0.0,0.0,0.0,0.0,0.0,0.0,0.0,0.0,0.0,0.3333,3.0,0.93,0.4384,0.1,0.0471,3.0,1.4142,True,cubic,m-3m,225,18.5876,7.4724,1.0
B2 Mg1 O6 Sn1,4,0.0,0.0,0.1,0.6,0.0,0.0,0.2,0.0,0.0,0.0,-0.8,2.13,0.8086,0.9,0.3393,3.0,0.9165,True,trigonal,-3,148,9.9575,4.3464,1.0
Co4 O28 P8,3,0.0,0.0,0.0,0.7,0.0,0.0,0.0,0.0,0.0,0.1,-1.8,1.56,0.6253,0.75,0.2534,2.0,0.6633,True,monoclinic,2/m,14,13.6302,2.8371,0.7613
O16 Sr4 Yb8,3,0.0,0.0,0.1429,0.5714,0.0,0.2857,0.0,0.0,0.2857,0.0,0.0,3.44,1.5732,1.4,0.6152,6.0,2.6419,True,orthorhombic,mmm,62,14.5386,8.1207,0.2906
Ho4 Pb2 Pd4,3,0.0,0.0,0.0,0.0,0.0,0.4,0.0,0.0,0.4,0.4,2.4,1.1,0.4987,0.4,0.1806,3.0,1.3565,True,tetragonal,4/mmm,127,22.562,11.0384,0.4494
Ga2 Pt2 Ti2,3,0.0,0.0,0.0,0.0,0.0,0.0,0.0,0.0,0.0,0.6667,3.0,0.74,0.3058,0.1,0.0408,2.0,0.9428,True,hexagonal,6/mmm,194,15.5254,11.1475,0.8006
Ba16 In16 S40,3,0.0,0.0,0.2222,0.0,0.0,0.0,0.0,0.0,0.0,0.0,-0.0,1.69,0.6861,1.15,0.4673,3.0,1.2862,True,orthorhombic,mmm,61,28.849,4.2506,0.8951
F20 K8 Y4,3,0.0,0.25,0.0,0.0,0.625,0.0,0.0,0.0,0.0,0.125,0.0,3.16,1.4698,1.7,0.7672,3.0,1.1659,True,orthorhombic,mm2,33,16.9445,3.2106,0.61
Eu2 O2 S1,3,0.0,0.0,0.0,0.4,0.0,0.4,0.0,0.0,0.4,0.0,-0.4,3.44,1.5764,1.25,0.5662,6.0,2.8,True,trigonal,-3m,164,18.1082,6.749,0.5769
Mo3 Si6,2,0.0,0.0,0.0,0.0,0.0,0.0,0.6667,0.0,0.0,0.3333,-1.3333,0.26,0.1226,0.35,0.165,2.0,0.9428,True,hexagonal,622,180,13.5707,6.2042,0.6976
Dy10 Ru4,2,0.0,0.0,0.0,0.0,0.0,0.7143,0.0,0.0,0.7143,0.2857,3.0,0.98,0.4427,0.45,0.2033,3.0,1.3553,True,monoclinic,2/m,15,25.8206,9.3217,0.7483
As2 Hg1 K4,3,0.0,0.5714,0.0,0.0,0.0,0.0,0.2857,0.0,0.0,0.1429,-0.1429,1.36,0.6457,1.05,0.4743,2.0,0.6999,True,trigonal,-3m,166,39.3932,3.052,1.0
Cd2 Cs2 Se6 Y2,4,0.0,0.1667,0.0,0.5,0.0,0.0,0.0,0.0,0.0,0.3333,-0.0,1.76,0.7078,1.45,0.5233,2.0,0.7454,True,orthorhombic,mmm,63,33.0199,4.7867,0.3837
La4 O12 Yb4,3,0.0,0.0,0.0,0.6,0.0,0.4,0.0,0.0,0.4,0.2,0.0,3.44,1.4579,1.35,0.6156,6.0,2.9394,True,orthorhombic,mm2,33,15.378,7.7734,0.7005
Mn2 O8 V2,3,0.0,0.0,0.0,0.6667,0.0,0.0,0.0,0.0,0.0,0.3333,-0.1667,1.89,0.8724,0.8,0.3656,2.0,0.9428,True,orthorhombic,mmm,63,12.6797,3.7079,0.7788
Au20 F84 Sm8,3,0.0,0.0,0.0,0.0,0.75,0.0714,0.0,0.0,0.0714,0.1786,0.0,2.81,0.8513,1.35,0.4445,6.0,2.0304,True,tetragonal,422,92,16.4576,6.0702,0.3197
Ga12 Pu4,2,0.25,0.0,0.0,0.0,0.0,0.0,0.0,0.0,0.25,0.0,3.25,0.53,0.2295,0.45,0.1949,5.0,2.1651,True,trigonal,-3m,166,19.6057,9.5955,1.0
Nb1 Ni2 Sn1,3,0.0,0.0,0.0,0.0,0.0,0.0,0.0,0.0,0.0,0.75,1.25,0.36,0.1429,0.1,0.05,1.0,0.5,True,cubic,m-3m,225,14.9024,9.165,1.0
Li4 O24 Sc4 Si8,4,0.0,0.1,0.0,0.6,0.0,0.0,0.2,0.0,0.0,0.1,-1.6,2.46,0.9651,1.0,0.3755,2.0,0.6633,True,monoclinic,2/m,14,11.4068,2.9707,0.5684
O1 Pd1,2,0.0,0.0,0.0,0.5,0.0,0.0,0.0,0.0,0.0,0.5,0.0,1.24,0.62,0.8,0.4,3.0,1.5,True,tetragonal,4/mmm,139,11.7495,8.6506,0.9945
As4 Co14 O24,3,0.0,0.0,0.0,0.5714,0.0,0.0,0.0952,0.0,0.0,0.3333,-0.7619,1.56,0.7435,0.75,0.3534,2.0,0.9897,True,orthorhombic,mmm,74,11.0563,5.3952,0.5619
B2 C1 Pr1 Pt2,4,0.0,0.0,0.0,0.0,0.0,0.1667,0.3333,0.0,0.1667,0.3333,1.5,1.42,0.4476,1.15,0.3983,6.0,2.4267,True,tetragonal,4/mmm,139,13.5179,11.5615,0.6395
Ce4 Ge4 Ir4,3,0.0,0.0,0.0,0.0,0.0,0.3333,0.3333,0.0,0.3333,0.3333,0.6667,1.08,0.4708,0.6,0.2625,4.0,1.633,True,orthorhombic,mmm,62,19.7834,11.3306,0.5734
B4 C4 Y2,3,0.0,0.0,0.0,0.0,0.0,0.0,0.4,0.0,0.0,0.2,0.2,1.33,0.4867,1.1,0.4155,3.0,1.2,True,tetragonal,4/mmm,131,10.4462,4.2776,0.525
B5 W2,2,0.0,0.0,0.0,0.0,0.0,0.0,0.7143,0.0,0.0,0.2857,3.2857,0.32,0.1446,0.5,0.2259,4.0,1.807,True,trigonal,-3m,166,8.5034,11.7651,1.0