formula,numberOfSpecies,fracActinoid,fracAlkali,fracAlkaline,fracChalcogen,fracHalogen,fracLanthanoid,fracMetalloid,fracNobleGas,fracRareEarth,fracTransitionMetal,electronsPerAtom,electronegativityRange,electronegativityStd,radiiRange,radiiStd,rowRange,rowStd,ordered,crystalSystem,pointGroup,spaceGroupNumber,volumePerSite,density,c_a
Cs4 Pt2,2,0.0,0.6667,0.0,0.0,0.0,0.0,0.0,0.0,0.0,0.3333,1.3333,1.49,0.7024,1.25,0.5893,0.0,0.0,True,hexagonal,6/mmm,194,40.3872,6.3166,0.7105
Br2 O1 Rb4,3,0.0,0.5714,0.0,0.1429,0.2857,0.0,0.0,0.0,0.0,0.0,0.0,2.62,1.1478,1.75,0.7053,3.0,1.0302,True,tetragonal,4/mmm,139,38.3845,3.1993,0.5765
Ag2 Dy1 In1,3,0.0,0.0,0.0,0.0,0.0,0.25,0.0,0.0,0.25,0.5,2.0,0.71,0.2923,0.2,0.075,3.0,1.299,True,cubic,m-3m,225,21.54,9.5025,1.0
Ag1 F1,2,0.0,0.0,0.0,0.0,0.5,0.0,0.0,0.0,0.0,0.5,0.0,2.05,1.025,1.1,0.55,3.0,1.5,True,cubic,m-3m,225,15.9013,6.6242,1.0
Cu4 Dy3 Sn4,3,0.0,0.0,0.0,0.0,0.0,0.2727,0.0,0.0,0.2727,0.3636,0.0909,0.74,0.3172,0.4,0.1616,4.0,1.616,True,orthorhombic,mmm,71,20.7944,8.8314,0.529
B12 Dy8 O30,3,0.0,0.0,0.0,0.6,0.0,0.16,0.24,0.0,0.16,0.0,0.0,2.22,0.8838,1.15,0.4087,6.0,2.1996,True,monoclinic,2/m,15,9.7619,6.497,0.2323
Mn2 Se6 U2,3,0.2,0.0,0.0,0.6,0.0,0.0,0.0,0.0,0.2,0.2,0.4,1.17,0.5343,0.6,0.2358,5.0,2.0,True,orthorhombic,mmm,63,19.6079,8.9742,0.4264
Br3 Ga1 La3,3,0.0,0.0,0.0,0.0,0.4286,0.4286,0.0,0.0,0.4286,0.4286,1.2857,1.86,0.8644,0.8,0.3805,4.0,1.9795,True,cubic,m-3m,221,33.1464,5.1969,1.0
Cl1 Na1 O4,3,0.0,0.1667,0.0,0.6667,0.1667,0.0,0.0,0.0,0.0,0.0,-1.3333,2.51,0.9202,1.2,0.4422,1.0,0.4714,True,tetragonal,-42m,121,14.1591,2.3932,1.0
B2 Rh3 Sm1,3,0.0,0.0,0.0,0.0,0.0,0.1667,0.3333,0.0,0.1667,0.5,3.0,1.11,0.3928,1.0,0.3436,6.0,2.0616,True,hexagonal,6/mmm,191,13.5844,9.7933,1.7469
Cu2 F7 K3,3,0.0,0.25,0.0,0.0,0.5833,0.0,0.0,0.0,0.0,0.1667,-0.0,3.16,1.3876,1.7,0.7224,2.0,0.986,True,tetragonal,4/mmm,139,14.8387,3.5192,0.3712
Ba4 O44 Ti20,3,0.0,0.0,0.0588,0.6471,0.0,0.0,0.0,0.0,0.0,0.2941,0.0,2.55,0.9705,1.55,0.4722,4.0,1.1998,True,monoclinic,2/m,14,12.2251,4.4157,0.5353
B16 Fe4 Sm4,3,0.0,0.0,0.0,0.0,0.0,0.1667,0.6667,0.0,0.1667,0.1667,2.8333,0.87,0.318,1.0,0.3877,6.0,2.2111,True,orthorhombic,mmm,55,9.8585,7.0028,0.2984
Ce3 Ga1,2,0.0,0.0,0.0,0.0,0.0,0.75,0.0,0.0,0.75,0.0,3.0,0.69,0.2988,0.55,0.2382,4.0,1.7321,True,cubic,m-3m,221,25.1849,8.0781,1.0
C12 Ce8,2,0.0,0.0,0.0,0.0,0.0,0.4,0.0,0.0,0.4,0.0,-1.2,1.43,0.7006,1.15,0.5634,6.0,2.9394,True,cubic,-43m,220,14.8463,7.0747,1.0
Ag2 F8 Na2,3,0.0,0.1667,0.0,0.0,0.6667,0.0,0.0,0.0,0.0,0.1667,-0.3333,3.05,1.2363,1.3,0.5686,3.0,1.1055,True,tetragonal,4/mmm,140,14.3358,3.9933,0.8474
Ca2 F8 Pd2,3,0.0,0.0,0.1667,0.0,0.6667,0.0,0.0,0.0,0.0,0.1667,0.0,2.98,1.1742,1.3,0.5312,3.0,1.2134,True,tetragonal,4/mmm,140,14.1003,4.367,0.8473
Li1 Mn4 O8,3,0.0,0.0769,0.0,0.6154,0.0,0.0,0.0,0.0,0.0,0.3077,-0.5385,2.46,0.9852,0.85,0.3943,2.0,0.9231,True,cubic,-43m,216,11.2241,4.0365,1.0
Cu1 F6 Sn1,3,0.0,0.0,0.0,0.0,0.75,0.0,0.0,0.0,0.0,0.125,-1.0,2.08,0.8878,0.95,0.3905,3.0,1.111,True,trigonal,-3,148,14.2291,4.3215,1.0
Ga10 Pd2,2,0.0,0.0,0.0,0.0,0.0,0.0,0.0,0.0,0.0,0.1667,2.8333,0.39,0.1453,0.1,0.0373,1.0,0.3727,True,tetragonal,4/mmm,140,17.9176,7.0285,0.9529
Ge4 Ni4 Ta4,3,0.0,0.0,0.0,0.0,0.0,0.0,0.3333,0.0,0.0,0.6667,1.0,0.51,0.2207,0.2,0.0816,2.0,0.9428,True,orthorhombic,mmm,62,14.2998,12.0877,0.5227
B2 C1 Er1 Ni2,4,0.0,0.0,0.0,0.0,0.0,0.1667,0.3333,0.0,0.1667,0.3333,1.5,1.31,0.3837,1.05,0.3702,6.0,2.1344,True,tetragonal,4/mmm,139,10.7264,8.212,0.6079
Ca1 Cu1 O2,3,0.0,0.0,0.25,0.5,0.0,0.0,0.0,0.0,0.0,0.25,0.0,2.44,1.0446,1.2,0.5128,2.0,1.0,True,tetragonal,4/mmm,123,12.0223,4.6831,0.8276
P4 V8,2,0.0,0.0,0.0,0.0,0.0,0.0,0.0,0.0,0.0,0.6667,2.3333,0.56,0.264,0.35,0.165,1.0,0.4714,True,orthorhombic,mmm,62,12.7449,5.77,0.4327
Cd4 I14 Tl6,3,0.0,0.0,0.0,0.0,0.5833,0.0,0.0,0.0,0.0,0.1667,-0.0,1.04,0.4994,0.5,0.2092,1.0,0.433,True,orthorhombic,mmm,55,42.3996,5.6341,0.2971
O12 Rb4 V4,3,0.0,0.2,0.0,0.6,0.0,0.0,0.0,0.0,0.0,0.2,0.0,2.62,1.1149,1.75,0.6892,3.0,1.2649,True,orthorhombic,mmm,57,18.6193,3.2892,0.473
Ho1,1,0.0,0.0,0.0,0.0,0.0,1.0,0.0,0.0,1.0,0.0,3.0,0.0,0.0,0.0,0.0,0.0,0.0,True,cubic,m-3m,229,31.5932,8.6687,1.0
Cs2 F18 U4,3,0.1667,0.0833,0.0,0.0,0.75,0.0,0.0,0.0,0.1667,0.0,0.3333,3.19,1.219,2.1,0.6935,7.0,2.6926,True,triclinic,1,1,17.4704,6.1778,0.8219
F28 Th4 Tl12,3,0.0909,0.0,0.0,0.0,0.6364,0.0,0.0,0.0,0.0909,0.0,0.0,2.68,1.1767,1.4,0.662,7.0,2.4155,True,monoclinic,2/m,11,18.7539,7.8738,0.7892
Ba2 Bi1 O6 Y1,4,0.0,0.0,0.2,0.6,0.0,0.0,0.0,0.0,0.0,0.1,-0.2,2.55,1.1096,1.55,0.666,4.0,1.8574,True,cubic,m-3m,225,16.5795,6.6958,1.0
B4 Ce1 O12 Sc3,4,0.0,0.0,0.0,0.6,0.0,0.05,0.2,0.0,0.05,0.15,0.0,2.32,0.8993,1.25,0.4144,6.0,1.4283,True,trigonal,32,155,11.3456,3.7338,1.0
Te2,1,0.0,0.0,0.0,1.0,0.0,0.0,1.0,0.0,0.0,0.0,-2.0,0.0,0.0,0.0,0.0,0.0,0.0,True,trigonal,-3m,166,32.6764,6.4843,1.0
Cl16 F4 Ta4,3,0.0,0.0,0.0,0.0,0.8333,0.0,0.0,0.0,0.0,0.1667,0.0,2.48,0.7428,0.95,0.2745,4.0,1.2472,True,tetragonal,-4,82,30.9615,3.0549,0.8416
B3 Ca4 La1 O10,4,0.0,0.0,0.2222,0.5556,0.0,0.0556,0.1667,0.0,0.0556,0.0556,-0.0,2.44,1.0648,1.35,0.5336,6.0,1.5113,True,monoclinic,m,8,13.2644,3.4193,0.402
Ba1 Pt5,2,0.0,0.0,0.1667,0.0,0.0,0.0,0.0,0.0,0.0,0.8333,2.0,1.39,0.518,0.8,0.2981,0.0,0.0,True,hexagonal,6/mmm,191,19.9485,15.4378,1.2944
Co1 Mn2 Sb1,3,0.0,0.0,0.0,0.0,0.0,0.0,0.25,0.0,0.0,0.75,0.75,0.5,0.216,0.1,0.0354,1.0,0.433,True,cubic,-43m,216,13.4417,8.974,1.0
Ba1 Mg2 P2,3,0.0,0.0,0.6,0.0,0.0,0.0,0.0,0.0,0.0,0.0,0.0,1.3,0.5227,1.15,0.4238,3.0,1.2,True,trigonal,-3m,164,25.4446,3.2354,0.5762
Ce1 P12 Ru4,3,0.0,0.0,0.0,0.0,0.0,0.0588,0.0,0.0,0.0588,0.2353,-1.2353,1.08,0.2524,0.85,0.2217,5.0,1.3517,True,cubic,m-3,204,15.578,5.7441,1.0
K4 S6,2,0.0,0.4,0.0,0.0,0.0,0.0,0.0,0.0,0.0,0.0,-0.8,1.76,0.8622,1.2,0.5879,1.0,0.4899,True,orthorhombic,mm2,36,28.4988,2.0323,0.8298
Ba4 Ca2 O12 Pd6,4,0.0,0.0,0.25,0.5,0.0,0.0,0.0,0.0,0.0,0.25,-0.0,2.55,1.0411,1.55,0.6072,4.0,1.6562,True,orthorhombic,mmm,69,16.3914,6.1626,0.8289
Cd20 Cu8,2,0.0,0.0,0.0,0.0,0.0,0.0,0.0,0.0,0.0,1.0,2.0,0.21,0.0949,0.2,0.0904,1.0,0.4518,True,hexagonal,6/mmm,194,19.0083,8.6004,0.9439
Na4 O20 P4 Ti4,4,0.0,0.125,0.0,0.625,0.0,0.0,0.0,0.0,0.0,0.125,-1.0,2.51,0.9662,1.2,0.4359,2.0,0.7071,True,monoclinic,2/m,14,11.7514,3.2117,0.7837
C2 Co2 O6,3,0.0,0.0,0.0,0.6,0.0,0.0,0.0,0.0,0.0,0.2,-1.6,1.56,0.6364,0.75,0.2926,2.0,0.8,True,trigonal,-3m,167,9.6926,4.0754,1.0
Co1 N6 Na3 O12,4,0.0,0.1364,0.0,0.5455,0.0,0.0,0.0,0.0,0.0,0.0455,-1.6818,2.51,0.8606,1.2,0.4218,2.0,0.5163,True,trigonal,-3m,166,12.4712,2.4447,1.0
Cl6 K2 Mn1,3,0.0,0.2222,0.0,0.0,0.6667,0.0,0.0,0.0,0.0,0.1111,-0.2222,2.34,1.0081,1.2,0.4909,1.0,0.4714,True,cubic,m-3m,225,26.9904,2.3642,1.0
Ga2 Hf4,2,0.0,0.0,0.0,0.0,0.0,0.0,0.0,0.0,0.0,0.6667,3.6667,0.51,0.2404,0.25,0.1179,2.0,0.9428,True,tetragonal,4/mmm,140,19.866,11.8889,0.9738
Ga2 Se2,2,0.0,0.0,0.0,0.5,0.0,0.0,0.0,0.0,0.0,0.0,0.5,0.74,0.37,0.15,0.075,0.0,0.0,True,trigonal,3m,160,27.9666,4.4141,1.0
B12 O2,2,0.0,0.0,0.0,0.1429,0.0,0.0,0.8571,0.0,0.0,0.0,2.2857,1.4,0.4899,0.25,0.0875,0.0,0.0,True,trigonal,-3m,166,7.3892,2.5961,1.0
Pa1,1,1.0,0.0,0.0,0.0,0.0,0.0,0.0,0.0,1.0,0.0,5.0,0.0,0.0,0.0,0.0,0.0,0.0,True,cubic,m-3m,225,25.2097,15.2181,1.0
Pd8 S8,2,0.0,0.0,0.0,0.0,0.0,0.0,0.0,0.0,0.0,0.5,0.0,0.38,0.19,0.4,0.2,2.0,1.0,True,tetragonal,4/m,84,17.7922,6.4624,0.9756
Ca3 Ir4 Si4,3,0.0,0.0,0.2727,0.0,0.0,0.0,0.3636,0.0,0.0,0.3636,0.1818,1.2,0.4848,0.7,0.2774,3.0,1.2984,True,cubic,-43m,217,19.0042,7.9549,1.0
Co9 Y3,2,0.0,0.0,0.0,0.0,0.0,0.0,0.0,0.0,0.0,1.0,2.25,0.66,0.2858,0.45,0.1949,1.0,0.433,True,trigonal,-3m,166,14.6269,7.5411,1.0
Li2 O8 Rb4 V2,4,0.0,0.375,0.0,0.5,0.0,0.0,0.0,0.0,0.0,0.125,0.0,2.62,1.212,1.75,0.721,3.0,1.3229,True,orthorhombic,mm2,36,17.9352,3.3888,0.7468
Al4 Cl16 Pd2,3,0.0,0.0,0.0,0.0,0.7273,0.0,0.0,0.0,0.0,0.0909,-0.0,1.55,0.62,0.4,0.1386,2.0,0.575,True,monoclinic,2/m,14,31.9029,2.1009,0.4955
C6 Fe1 N6 Sn2,4,0.0,0.0,0.0,0.0,0.0,0.0,0.0,0.0,0.0,0.0667,-3.2,1.21,0.415,0.8,0.3043,3.0,1.0873,True,trigonal,-3,147,16.8599,2.9506,1.3018
Hf14 P8,2,0.0,0.0,0.0,0.0,0.0,0.0,0.0,0.0,0.0,0.6364,1.4545,0.89,0.4281,0.55,0.2646,3.0,1.4431,True,monoclinic,2/m,12,17.9954,11.5204,0.2404
Br30 W6,2,0.0,0.0,0.0,0.0,0.8333,0.0,0.0,0.0,0.0,0.1667,-0.1667,0.6,0.2236,0.2,0.0745,2.0,0.7454,True,monoclinic,2/m,12,35.9295,4.4935,0.4569
K4 O16 V6,3,0.0,0.1538,0.0,0.6154,0.0,0.0,0.0,0.0,0.0,0.2308,0.0769,2.62,1.067,1.6,0.5898,2.0,0.973,True,tetragonal,4mm,100,17.2479,2.6588,0.6102
Cl16 Ti4,2,0.0,0.0,0.0,0.0,0.8,0.0,0.0,0.0,0.0,0.2,0.0,1.62,0.648,0.4,0.16,1.0,0.4,True,monoclinic,2/m,14,40.473,1.5564,0.6668
Br4 Hg8 P12,3,0.0,0.0,0.0,0.0,0.1667,0.0,0.0,0.0,0.0,0.3333,-1.3333,0.96,0.3265,0.5,0.2244,3.0,1.3437,True,orthorhombic,mmm,60,24.7196,6.4265,0.8692
Hg2 Pt2,2,0.0,0.0,0.0,0.0,0.0,0.0,0.0,0.0,0.0,1.0,1.5,0.28,0.14,0.15,0.075,0.0,0.0,True,tetragonal,4/mmm,123,18.2286,18.022,0.9325
N5 P3,2,0.0,0.0,0.0,0.0,0.0,0.0,0.0,0.0,0.0,0.0,-3.0,0.85,0.4115,0.35,0.1694,1.0,0.4841,True,triclinic,1,1,9.6339,3.511,0.3741
Pt2 Sn8,2,0.0,0.0,0.0,0.0,0.0,0.0,0.0,0.0,0.0,0.2,-2.8,0.32,0.128,0.1,0.04,1.0,0.4,True,orthorhombic,mmm,68,24.6601,9.0222,0.9807
Cu2 Hf2 Se6 Tl2,4,0.0,0.0,0.0,0.5,0.0,0.0,0.0,0.0,0.0,0.3333,0.1667,1.25,0.5025,0.75,0.2765,2.0,0.9428,True,orthorhombic,mmm,63,24.2849,7.787,0.3797
Mn2 O8 U2,3,0.1667,0.0,0.0,0.6667,0.0,0.0,0.0,0.0,0.1667,0.1667,0.0,2.06,0.9323,1.15,0.4706,7.0,2.5658,True,orthorhombic,mmm,74,13.5607,7.2852,1.0
Na16 Tl8,2,0.0,0.6667,0.0,0.0,0.0,0.0,0.0,0.0,0.0,0.0,1.0,0.69,0.3253,0.1,0.0471,3.0,1.4142,True,orthorhombic,222,20,31.3073,4.4264,0.7097
Nb4 O20 P4,3,0.0,0.0,0.0,0.7143,0.0,0.0,0.0,0.0,0.0,0.1429,-1.1429,1.84,0.7156,0.85,0.3069,3.0,1.0498,True,orthorhombic,mmm,62,15.1881,3.1843,0.4743
Cl3 Cs1 Ge1,3,0.0,0.2,0.0,0.0,0.6,0.0,0.2,0.0,0.0,0.0,-1.2,2.37,0.9446,1.6,0.6226,3.0,1.1662,True,trigonal,3m,160,33.6074,3.0822,1.0
Rh4 Si4 Y4,3,0.0,0.0,0.0,0.0,0.0,0.0,0.3333,0.0,0.0,0.6667,0.6667,1.06,0.4385,0.7,0.2896,2.0,0.9428,True,orthorhombic,mmm,62,18.2668,6.6632,0.5696
Co2 O24 P8,3,0.0,0.0,0.0,0.7059,0.0,0.0,0.0,0.0,0.0,0.0588,-2.0,1.56,0.6016,0.75,0.2272,2.0,0.5882,True,monoclinic,2,4,15.1715,2.4132,0.7013
Al2 Si2 Yb1,3,0.0,0.0,0.0,0.0,0.0,0.2,0.4,0.0,0.2,0.0,0.2,1.9,0.7139,0.65,0.2396,5.0,2.0,True,trigonal,-3m,164,21.021,4.4738,0.5883
Cd2 P2 Sr1,3,0.0,0.0,0.2,0.0,0.0,0.0,0.0,0.0,0.0,0.4,0.0,1.24,0.4548,1.0,0.3803,2.0,0.9798,True,trigonal,-3m,164,24.4606,5.0832,0.5986
Ca1 Cl2 H12 O6,4,0.0,0.0,0.0476,0.2857,0.0952,0.0,0.0,0.0,0.0,0.0,-1.1429,2.44,0.6668,1.55,0.3779,3.0,0.8438,True,trigonal,32,150,10.3311,1.6768,1.9562
Mn3 N1 Rh1,3,0.0,0.0,0.0,0.0,0.0,0.0,0.0,0.0,0.0,0.8,1.2,1.49,0.5945,0.75,0.2956,3.0,0.9798,True,cubic,m-3m,221,22.3338,4.1893,1.0
P8 S10,2,0.0,0.0,0.0,0.0,0.0,0.0,0.0,0.0,0.0,0.0,-2.4444,0.39,0.1938,0.0,0.0,0.0,0.0,True,monoclinic,2/m,11,29.473,1.7792,0.5541
O30 P10 Sn4,3,0.0,0.0,0.0,0.6818,0.0,0.0,0.0,0.0,0.0,0.0,-2.4091,1.48,0.6156,0.85,0.2716,3.0,0.8919,True,monoclinic,m,7,14.7351,3.2388,2.3095
Mn12 P7 U2,3,0.0952,0.0,0.0,0.0,0.0,0.0,0.0,0.0,0.0952,0.5714,0.7143,0.81,0.3169,0.75,0.2345,6.0,1.6413,True,hexagonal,-6,174,12.6445,8.4556,2.5876
Cr2 Li6 O16 P4,4,0.0,0.2143,0.0,0.5714,0.0,0.0,0.0,0.0,0.0,0.0714,-1.1429,2.46,1.026,0.85,0.3681,2.0,0.589,True,monoclinic,2/m,15,10.1257,3.0779,0.3593
Cs1 K2 O8 P2 Yb1,5,0.0,0.2143,0.0,0.5714,0.0,0.0714,0.0,0.0,0.0714,0.0,-1.1429,3.44,1.2549,2.0,0.7127,6.0,1.767,True,trigonal,-3m,164,16.4045,4.1508,0.7456
Al1 Cu2 Sc1,3,0.0,0.0,0.0,0.0,0.0,0.0,0.0,0.0,0.0,0.75,2.5,0.54,0.2255,0.35,0.1293,1.0,0.433,True,cubic,m-3m,225,14.8998,5.5453,1.0
Cl6 La6 O12 W2,4,0.0,0.0,0.0,0.4615,0.2308,0.2308,0.0,0.0,0.2308,0.3077,-0.1538,2.34,0.9479,1.35,0.5364,6.0,2.4639,True,hexagonal,6/m,176,16.5264,6.2058,1.733
In3 Pd3 Tb3,3,0.0,0.0,0.0,0.0,0.0,0.3333,0.0,0.0,0.3333,0.3333,2.6667,2.2,0.9536,0.35,0.1434,3.0,1.4142,True,hexagonal,-6m2,189,22.319,9.4281,2.008
B4 Dy4 O12,3,0.0,0.0,0.0,0.6,0.0,0.2,0.2,0.0,0.2,0.0,0.0,2.22,0.9239,1.15,0.4456,6.0,2.4,True,triclinic,-1,2,11.46,6.4135,0.9681
Ge18 Na8 O40,3,0.0,0.1212,0.0,0.6061,0.0,0.0,0.2727,0.0,0.0,0.0,-2.1818,2.51,0.9162,1.2,0.4308,2.0,0.8762,True,tetragonal,4/m,88,13.2307,4.0531,0.6578
B4 Fe56 Nd8,3,0.0,0.0,0.0,0.0,0.0,0.1176,0.0588,0.0,0.1176,0.8235,2.1765,0.9,0.2321,1.0,0.203,6.0,1.4118,True,tetragonal,4/mmm,136,13.7267,7.6932,0.7241
O56 Sr16 V16,3,0.0,0.0,0.1818,0.6364,0.0,0.0,0.0,0.0,0.0,0.1818,0.0,2.49,1.0544,1.4,0.553,3.0,1.2398,True,tetragonal,4,76,15.516,3.7858,0.2734
Ba2 In4,2,0.0,0.0,0.3333,0.0,0.0,0.0,0.0,0.0,0.0,0.0,2.6667,0.89,0.4196,0.6,0.2828,1.0,0.4714,True,orthorhombic,mmm,74,33.5709,6.0504,0.7981
B4 Mo10 Si2,3,0.0,0.0,0.0,0.0,0.0,0.0,0.375,0.0,0.0,0.625,2.75,0.26,0.0902,0.6,0.2603,3.0,1.3229,True,monoclinic,2/m,15,12.7811,8.5977,0.861
Cu1 Ge4 O12 Tb2,4,0.0,0.0,0.0,0.6316,0.0,0.1053,0.2105,0.0,0.1053,0.0526,-1.6842,3.44,1.1167,1.15,0.4115,6.0,1.8712,True,triclinic,-1,2,13.7655,5.4852,0.6205
Ag2 Al6 Br2 Na6 O24 Si6,6,0.0,0.1304,0.0,0.5217,0.0435,0.0,0.1304,0.0,0.0,0.0435,-1.0435,2.51,0.974,1.2,0.4386,3.0,0.7655,True,triclinic,1,1,16.0583,2.7602,0.9998
Br2 Cr2 O2,3,0.0,0.0,0.0,0.3333,0.3333,0.0,0.0,0.0,0.0,0.3333,0.0,1.78,0.7519,0.8,0.3342,2.0,0.9428,True,orthorhombic,mmm,59,19.5619,4.1849,0.3771
B6 N12 Pr6,3,0.0,0.0,0.0,0.0,0.0,0.25,0.25,0.0,0.25,0.0,0.0,1.91,0.7955,1.2,0.4975,6.0,2.5981,True,trigonal,-3m,167,12.7308,5.8608,1.0
Ba4 Cr4 O16,3,0.0,0.0,0.1667,0.6667,0.0,0.0,0.0,0.0,0.0,0.1667,-0.5,2.55,1.0445,1.55,0.5947,4.0,1.5275,True,orthorhombic,mmm,62,16.2763,4.3074,0.6175
Al4 Dy2,2,0.0,0.0,0.0,0.0,0.0,0.3333,0.0,0.0,0.3333,0.0,3.0,0.39,0.1838,0.5,0.2357,5.0,2.357,True,cubic,m-3m,227,20.2794,5.9082,1.0
Al10 F40 Rb10,3,0.0,0.1667,0.0,0.0,0.6667,0.0,0.0,0.0,0.0,0.0,0.0,3.16,1.3232,1.85,0.6902,3.0,1.1055,True,tetragonal,-42m,120,15.0303,3.4698,1.0
Rh2 V6,2,0.0,0.0,0.0,0.0,0.0,0.0,0.0,0.0,0.0,1.0,4.5,0.65,0.2815,0.0,0.0,1.0,0.433,True,cubic,m-3m,223,13.6768,7.7623,1.0
Li4 O24 Sb4 W4,4,0.0,0.1111,0.0,0.6667,0.0,0.0,0.1111,0.0,0.0,0.1111,-1.1111,2.46,0.8465,0.85,0.3859,4.0,1.4741,True,orthorhombic,mmm,60,11.9471,6.3092,0.2683
F20 H32 N8 Ti4,4,0.0,0.0,0.0,0.0,0.3125,0.0,0.0,0.0,0.0,0.0625,-0.9375,2.44,0.8492,1.15,0.2867,3.0,0.7806,True,orthorhombic,mmm,62,8.8115,2.1075,0.5548
Ag3 In1,2,0.0,0.0,0.0,0.0,0.0,0.0,0.0,0.0,0.0,0.75,1.5,0.15,0.065,0.05,0.0217,0.0,0.0,True,cubic,m-3m,221,19.1523,9.503,1.0
In14 Pt6,2,0.0,0.0,0.0,0.0,0.0,0.0,0.0,0.0,0.0,0.3,2.7,0.5,0.2291,0.2,0.0917,1.0,0.4583,True,cubic,m-3m,229,22.1692,10.4038,1.0
C24 F48 Ga8 H144 N72,5,0.0,0.0,0.0,0.0,0.1622,0.0,0.0,0.0,0.0,0.0,-1.6216,2.17,0.6622,1.05,0.2328,3.0,0.6384,True,cubic,m-3,205,9.7344,1.678,1.0
Au2 Ca2 P2,3,0.0,0.0,0.3333,0.0,0.0,0.0,0.0,0.0,0.0,0.3333,0.6667,1.54,0.6591,0.8,0.3274,3.0,1.2472,True,hexagonal,6/mmm,194,21.3247,6.9568,0.5384
Na4 O22 Si8 Zr2,4,0.0,0.1111,0.0,0.6111,0.0,0.0,0.2222,0.0,0.0,0.0556,-1.7778,2.51,0.964,1.2,0.4211,3.0,0.7638,True,monoclinic,2/m,15,13.6159,2.8832,0.8727
Cu3 In3 Tb3,3,0.0,0.0,0.0,0.0,0.0,0.3333,0.0,0.0,0.3333,0.3333,2.6667,1.9,0.8688,0.4,0.1633,4.0,1.6997,True,hexagonal,-6m2,189,21.3161,8.7584,1.8764
Pb2 U2,2,0.5,0.0,0.0,0.0,0.0,0.0,0.0,0.0,0.5,0.0,4.0,0.95,0.475,0.05,0.025,3.0,1.5,True,tetragonal,4/mmm,123,27.5378,13.4237,0.9224
B8 Na8 S20,3,0.0,0.2222,0.0,0.0,0.0,0.0,0.2222,0.0,0.0,0.0,-0.2222,1.65,0.658,0.95,0.3555,1.0,0.4157,True,orthorhombic,mmm,62,22.4167,1.876,0.6028
Mn8 Ta4,2,0.0,0.0,0.0,0.0,0.0,0.0,0.0,0.0,0.0,1.0,3.0,0.05,0.0236,0.05,0.0236,2.0,0.9428,True,hexagonal,6/mmm,194,13.1947,12.1999,0.6078
Al4 Gd4 O12,3,0.0,0.0,0.0,0.6,0.0,0.2,0.0,0.0,0.2,0.0,0.0,2.24,1.0053,1.2,0.4854,6.0,2.3324,True,orthorhombic,mmm,62,10.6591,7.2357,0.7036
F10 H4 Mn2 O2 Tl4,5,0.0,0.0,0.0,0.0909,0.4545,0.0,0.0,0.0,0.0,0.0909,-0.4545,2.43,1.0517,1.65,0.5935,5.0,1.7104,True,orthorhombic,mmm,63,15.3395,5.6755,0.7446
Br16 K4 Tl4,3,0.0,0.1667,0.0,0.0,0.6667,0.0,0.0,0.0,0.0,0.0,-0.3333,2.14,0.8521,1.05,0.433,2.0,0.7454,True,orthorhombic,mmm,52,40.093,3.887,0.7483
C1 N2 O2 Pr2,4,0.0,0.0,0.0,0.2857,0.0,0.2857,0.0,0.0,0.2857,0.0,-1.1429,2.31,0.9332,1.25,0.5475,6.0,2.7105,True,trigonal,-3m,164,16.338,5.1376,0.4713
As1 Np1,2,0.5,0.0,0.0,0.0,0.0,0.0,0.5,0.0,0.5,0.0,1.0,0.82,0.41,0.6,0.3,5.0,2.5,True,cubic,m-3m,225,24.6453,10.5083,1.0
Ga1 Mo4 Se8,3,0.0,0.0,0.0,0.6154,0.0,0.0,0.0,0.0,0.0,0.3077,0.2308,0.74,0.24,0.3,0.1365,1.0,0.4615,True,cubic,-43m,216,21.0012,6.6002,1.0
Ba4 Ge8 S20,3,0.0,0.0,0.125,0.0,0.0,0.0,0.25,0.0,0.0,0.0,-2.0,1.69,0.5596,1.15,0.372,3.0,0.9922,True,cubic,m-3m,227,27.5747,3.3342,1.0
La8 P48 Si16,3,0.0,0.0,0.0,0.0,0.0,0.1111,0.2222,0.0,0.1111,0.1111,-2.5556,1.09,0.341,0.95,0.2936,5.0,1.5713,True,orthorhombic,mm2,36,21.0058,3.3458,0.6773
Cr6 Ge2,2,0.0,0.0,0.0,0.0,0.0,0.0,0.25,0.0,0.0,0.75,1.25,0.35,0.1516,0.15,0.065,0.0,0.0,True,cubic,m-3m,223,12.0917,7.8493,1.0
N2 S1 Th2,3,0.4,0.0,0.0,0.0,0.0,0.0,0.0,0.0,0.4,0.0,0.0,1.74,0.7952,1.15,0.5221,7.0,3.2863,True,trigonal,-3m,164,19.4606,8.945,0.5795
La4 O16 Ta4,3,0.0,0.0,0.0,0.6667,0.0,0.1667,0.0,0.0,0.1667,0.3333,0.0,2.34,1.0154,1.35,0.5383,6.0,2.4267,True,monoclinic,2/m,14,13.9629,7.6083,0.7114
Er1 Ga3,2,0.0,0.0,0.0,0.0,0.0,0.25,0.0,0.0,0.25,0.0,3.0,0.57,0.2468,0.45,0.1949,4.0,1.7321,True,cubic,m-3m,221,19.294,8.0993,1.0
B20 Na3,2,0.0,0.1304,0.0,0.0,0.0,0.0,0.8696,0.0,0.0,0.0,2.7391,1.11,0.3738,0.95,0.3199,1.0,0.3368,True,orthorhombic,mmm,65,9.5945,2.146,0.4246
Nd2 Ru2 Si2,3,0.0,0.0,0.0,0.0,0.0,0.3333,0.3333,0.0,0.3333,0.3333,0.6667,1.06,0.4461,0.75,0.3171,5.0,2.0548,True,tetragonal,4/mmm,129,20.8057,7.2734,0.6058
Ho3 Rh3 Sn3,3,0.0,0.0,0.0,0.0,0.0,0.3333,0.0,0.0,0.3333,0.3333,0.6667,1.05,0.4394,0.4,0.17,3.0,1.4142,True,hexagonal,-6m2,189,21.0994,10.1405,2.016
Eu4 Ni4 O12,3,0.0,0.0,0.0,0.6,0.0,0.2,0.0,0.0,0.2,0.2,-0.4,3.44,1.359,1.25,0.5148,6.0,2.3324,True,orthorhombic,mmm,62,11.3448,7.5719,0.7082
As4 Ge2 K4,3,0.0,0.4,0.0,0.0,0.0,0.0,0.6,0.0,0.0,0.0,-1.6,1.36,0.6415,1.05,0.4994,0.0,0.0,True,orthorhombic,mmm,72,32.0371,3.117,0.8004
Cr2 Na2 O16 W4,4,0.0,0.0833,0.0,0.6667,0.0,0.0,0.0,0.0,0.0,0.25,-0.3333,2.51,0.8334,1.2,0.4266,4.0,1.4977,True,monoclinic,2/m,13,12.274,6.4337,0.5094
Sn2 Ti6,2,0.0,0.0,0.0,0.0,0.0,0.0,0.0,0.0,0.0,0.75,2.0,0.42,0.1819,0.05,0.0217,1.0,0.433,True,hexagonal,6/mmm,194,18.0327,6.0387,1.2429
Mo6 Si2,2,0.0,0.0,0.0,0.0,0.0,0.0,0.25,0.0,0.0,0.75,2.0,0.26,0.1126,0.35,0.1516,2.0,0.866,True,cubic,m-3m,223,14.8816,8.8125,1.0
H24 K4 Ni2 O28 S4,5,0.0,0.0645,0.0,0.4516,0.0,0.0,0.0,0.0,0.0,0.0323,-1.2903,2.62,0.77,1.95,0.4906,3.0,0.9067,True,monoclinic,2/m,14,10.7685,2.1743,0.5032
Al2 Li2 O20 Si8,4,0.0,0.0625,0.0,0.625,0.0,0.0,0.25,0.0,0.0,0.0,-2.0,2.46,0.8683,0.85,0.2936,1.0,0.4635,True,monoclinic,m,7,13.9084,2.2853,0.4587
Cl16 Co4 Na8,3,0.0,0.2857,0.0,0.0,0.5714,0.0,0.0,0.0,0.0,0.1429,0.0,2.23,0.9912,0.8,0.3504,1.0,0.3499,True,orthorhombic,mmm,62,26.208,2.2332,0.4635
Ba1 Mn2 Nd2 O7,4,0.0,0.0,0.0833,0.5833,0.0,0.1667,0.0,0.0,0.1667,0.1667,-0.1667,2.55,1.0905,1.55,0.5879,6.0,2.2852,True,tetragonal,4/mmm,139,13.5146,6.6318,0.3722
Fe3 Pt1,2,0.0,0.0,0.0,0.0,0.0,0.0,0.0,0.0,0.0,1.0,2.0,0.45,0.1949,0.05,0.0217,2.0,0.866,True,cubic,m-3m,221,13.0493,11.5359,1.0
Hg12 I8 Te8,3,0.0,0.0,0.0,0.2857,0.2857,0.0,0.2857,0.0,0.0,0.4286,-0.4286,0.66,0.2831,0.1,0.0495,1.0,0.4949,True,monoclinic,2/m,15,39.2565,6.7122,0.6091
Ca2 Ga6 Ni4,3,0.0,0.0,0.1667,0.0,0.0,0.0,0.0,0.0,0.0,0.3333,2.5,0.91,0.3199,0.5,0.1803,0.0,0.0,True,orthorhombic,mmm,63,16.614,6.1074,0.822
Cl8 Tl4,2,0.0,0.0,0.0,0.0,0.6667,0.0,0.0,0.0,0.0,0.0,-0.3333,1.54,0.726,0.9,0.4243,3.0,1.4142,True,tetragonal,4/m,88,34.1031,4.4681,0.7585
Ce4 K12 P8 S32,4,0.0,0.2143,0.0,0.0,0.0,0.0714,0.0,0.0,0.0714,0.0,-1.1429,1.76,0.7411,1.2,0.5091,5.0,1.2936,True,monoclinic,2/m,14,27.5333,2.4808,0.531
P1 Te2 Zr2,3,0.0,0.0,0.0,0.4,0.0,0.0,0.4,0.0,0.0,0.4,0.2,0.86,0.3933,0.55,0.2015,2.0,0.8,True,trigonal,-3m,166,26.1246,5.9573,1.0
Dy1 O6 Re1 Sr2,4,0.0,0.0,0.2,0.6,0.0,0.1,0.0,0.0,0.1,0.1,-0.1,2.49,1.0982,1.4,0.5997,6.0,2.1071,True,cubic,m-3m,225,14.5553,7.0726,1.0
Cl6 Ni2 Rb2,3,0.0,0.2,0.0,0.0,0.6,0.0,0.0,0.0,0.0,0.2,0.0,2.34,0.9445,1.35,0.5229,2.0,0.8,True,hexagonal,6/mmm,194,25.6283,3.2464,1.1872