formula,numberOfSpecies,fracActinoid,fracAlkali,fracAlkaline,fracChalcogen,fracHalogen,fracLanthanoid,fracMetalloid,fracNobleGas,fracRareEarth,fracTransitionMetal,electronsPerAtom,electronegativityRange,electronegativityStd,radiiRange,radiiStd,rowRange,rowStd,ordered,crystalSystem,pointGroup,spaceGroupNumber,volumePerSite,density,c_a
C4 Ho2 K2 O12,4,0.0,0.1,0.0,0.6,0.0,0.1,0.0,0.0,0.1,0.0,-1.6,2.62,0.9468,1.6,0.5507,6.0,1.833,True,monoclinic,2/m,15,13.4269,4.0076,0.9081
La4 O12 Rh2 Zn2,4,0.0,0.0,0.0,0.6,0.0,0.2,0.0,0.0,0.2,0.4,-0.1,2.34,0.9838,1.35,0.5483,6.0,2.3685,True,monoclinic,2/m,14,12.8809,6.9888,0.7034
P2 Te2 U2,3,0.3333,0.0,0.0,0.3333,0.0,0.0,0.3333,0.0,0.3333,0.0,0.3333,0.81,0.3625,0.75,0.3064,6.0,2.4944,True,tetragonal,4/mmm,139,23.4141,9.3758,0.4592
Nb4 O14 U2,3,0.1,0.0,0.0,0.7,0.0,0.0,0.0,0.0,0.1,0.2,0.2,2.06,0.8786,1.15,0.4422,7.0,2.2383,True,orthorhombic,mmm,63,13.2995,6.6903,0.3529
Eu2 K6 O16 P4,4,0.0,0.2143,0.0,0.5714,0.0,0.0714,0.0,0.0,0.0714,0.0,-1.2143,3.44,1.2521,1.6,0.6661,6.0,1.6036,True,monoclinic,2/m,11,15.0229,3.6255,0.5936
H24 O24 Te4,3,0.0,0.0,0.0,0.5385,0.0,0.0,0.0769,0.0,0.0,0.0,-1.5385,1.34,0.6258,1.15,0.3095,4.0,1.0491,True,monoclinic,2/m,14,9.8103,2.9901,0.693
Mg6 O12 Te2,3,0.0,0.0,0.3,0.7,0.0,0.0,0.1,0.0,0.0,0.0,-0.8,2.13,0.9711,0.9,0.4295,3.0,0.9165,True,trigonal,-3,148,11.4404,4.3038,1.0
Si6 V3,2,0.0,0.0,0.0,0.0,0.0,0.0,0.6667,0.0,0.0,0.3333,-1.0,0.27,0.1273,0.25,0.1179,1.0,0.4714,True,hexagonal,622,181,12.7775,4.64,0.7164
F12 K6 Y2,3,0.0,0.3,0.0,0.0,0.6,0.0,0.0,0.0,0.0,0.1,0.0,3.16,1.5031,1.7,0.7915,3.0,1.1358,True,monoclinic,2/m,14,19.5332,2.722,0.6992
Cu4 K2 S8 V2,4,0.0,0.125,0.0,0.0,0.0,0.0,0.0,0.0,0.0,0.375,0.25,1.76,0.5973,1.2,0.3832,1.0,0.5,True,orthorhombic,mm2,40,22.6606,3.1637,0.5738
Pt1 S2,2,0.0,0.0,0.0,0.0,0.0,0.0,0.0,0.0,0.0,0.3333,-0.6667,0.3,0.1414,0.35,0.165,3.0,1.4142,True,trigonal,-3m,164,23.1278,6.2037,0.5727
P26 Re12,2,0.0,0.0,0.0,0.0,0.0,0.0,0.0,0.0,0.0,0.3158,-0.7895,0.29,0.1348,0.35,0.1627,3.0,1.3945,True,trigonal,-3,148,15.8533,8.379,1.0
V1 Zn3,2,0.0,0.0,0.0,0.0,0.0,0.0,0.0,0.0,0.0,1.0,2.75,0.02,0.0087,0.0,0.0,0.0,0.0,True,cubic,m-3m,221,14.0657,7.2949,1.0
B4 O6,2,0.0,0.0,0.0,0.6,0.0,0.0,0.4,0.0,0.0,0.0,0.0,1.4,0.6859,0.25,0.1225,0.0,0.0,True,orthorhombic,mm2,36,7.6814,3.0101,0.9108
O28 P8 V4,3,0.0,0.0,0.0,0.7,0.0,0.0,0.0,0.0,0.0,0.1,-1.5,1.81,0.6741,0.75,0.2534,2.0,0.6633,True,monoclinic,2/m,14,11.8586,3.149,0.7976
Fe4 Y2,2,0.0,0.0,0.0,0.0,0.0,0.0,0.0,0.0,0.0,1.0,2.3333,0.61,0.2876,0.4,0.1886,1.0,0.4714,True,cubic,m-3m,227,16.1446,6.8774,1.0
Al2 Sc4,2,0.0,0.0,0.0,0.0,0.0,0.0,0.0,0.0,0.0,0.6667,3.0,0.25,0.1179,0.35,0.165,1.0,0.4714,True,hexagonal,6/mmm,194,21.3506,3.0305,0.7951
O18 Sc4 Se6,3,0.0,0.0,0.0,0.8571,0.0,0.0,0.0,0.0,0.0,0.1429,-1.2857,2.08,0.7415,1.0,0.3738,2.0,0.9583,True,hexagonal,6/m,176,16.8202,3.3198,1.0704
Ag1 Cr1 Se2,3,0.0,0.0,0.0,0.5,0.0,0.0,0.0,0.0,0.0,0.5,0.0,0.89,0.3894,0.45,0.1887,1.0,0.433,True,trigonal,3m,160,21.5825,6.1125,1.0
K2 O8 S2,3,0.0,0.1667,0.0,0.6667,0.0,0.0,0.0,0.0,0.0,0.0,-1.5,2.62,0.9648,1.6,0.585,2.0,0.7638,True,triclinic,-1,2,16.4959,2.2676,0.7345
Hg2 Sr1,2,0.0,0.0,0.3333,0.0,0.0,0.0,0.0,0.0,0.0,0.6667,1.3333,1.05,0.495,0.5,0.2357,1.0,0.4714,True,hexagonal,6/mmm,191,30.2534,8.943,1.259
Cu6 N10 Sr12,3,0.0,0.0,0.4286,0.0,0.0,0.0,0.0,0.0,0.0,0.2143,0.2143,2.09,0.9225,1.35,0.596,3.0,1.3325,True,tetragonal,4mm,105,19.8816,4.6915,0.8469
Cu2 Ge8 Zr4,3,0.0,0.0,0.0,0.0,0.0,0.0,0.5714,0.0,0.0,0.4286,-0.8571,0.68,0.2996,0.3,0.1309,1.0,0.4518,True,orthorhombic,mmm,63,17.5297,7.2609,0.2257
La4 O12 Ti3,3,0.0,0.0,0.0,0.6316,0.0,0.2105,0.0,0.0,0.2105,0.3684,0.0,2.34,1.0462,1.35,0.5623,6.0,2.3911,True,trigonal,-3,148,12.5741,6.1944,1.0
Ag2 O1,2,0.0,0.0,0.0,0.3333,0.0,0.0,0.0,0.0,0.0,0.6667,0.0,1.51,0.7118,1.0,0.4714,3.0,1.4142,True,trigonal,-3m,164,14.8892,8.6149,0.6446
In4 Li4 O16 Si4,4,0.0,0.1429,0.0,0.5714,0.0,0.0,0.1429,0.0,0.0,0.0,-1.1429,2.46,0.9712,0.95,0.3999,3.0,1.0498,True,orthorhombic,mmm,62,11.4864,4.4163,0.4617
F2 Sr1,2,0.0,0.0,0.3333,0.0,0.6667,0.0,0.0,0.0,0.0,0.0,0.0,3.03,1.4284,1.5,0.7071,3.0,1.4142,True,cubic,m-3m,225,16.8199,4.1338,1.0
Al2 Co1 Zr6,3,0.0,0.0,0.0,0.0,0.0,0.0,0.0,0.0,0.0,0.7778,3.5556,0.55,0.1893,0.3,0.1286,2.0,0.8315,True,hexagonal,-6m2,189,20.3053,5.9993,2.3893
Dy1 Sb1,2,0.0,0.0,0.0,0.0,0.0,0.5,0.5,0.0,0.5,0.0,0.0,0.83,0.415,0.3,0.15,3.0,1.5,True,cubic,m-3m,225,29.8518,7.9061,1.0
Ce3 Ir9,2,0.0,0.0,0.0,0.0,0.0,0.25,0.0,0.0,0.25,0.75,3.0,1.08,0.4677,0.5,0.2165,2.0,0.866,True,trigonal,-3m,166,18.1282,16.4139,1.0
Co1 Mn2 Sn1,3,0.0,0.0,0.0,0.0,0.0,0.0,0.0,0.0,0.0,0.75,0.5,0.41,0.1871,0.1,0.0354,1.0,0.433,True,cubic,-43m,216,14.4799,8.2431,1.0
Cl1 Li4 N1,3,0.0,0.6667,0.0,0.0,0.1667,0.0,0.0,0.0,0.0,0.0,0.0,2.18,1.0,0.8,0.3115,1.0,0.3727,True,trigonal,-3m,166,12.8406,1.6644,1.0
As1 Ni1 Sm1,3,0.0,0.0,0.0,0.0,0.0,0.3333,0.3333,0.0,0.3333,0.3333,0.6667,1.01,0.427,0.7,0.2944,4.0,1.8856,True,hexagonal,-6m2,187,19.3026,8.1431,1.027
Gd1 O2 Rb1,3,0.0,0.25,0.0,0.5,0.0,0.25,0.0,0.0,0.25,0.0,0.0,2.62,1.2224,1.75,0.7627,6.0,2.4875,True,trigonal,-3m,166,18.1835,6.2719,1.0
O30 Rb4 Si12 Ti2,4,0.0,0.0833,0.0,0.625,0.0,0.0,0.25,0.0,0.0,0.0417,-2.0,2.62,0.9217,1.75,0.5019,3.0,0.9091,True,monoclinic,m,9,14.9888,2.8957,0.4872
Cd1 N3 O6 Tl1,4,0.0,0.0,0.0,0.5455,0.0,0.0,0.0,0.0,0.0,0.0909,-1.6364,1.82,0.6596,1.3,0.4345,4.0,1.3667,True,trigonal,3,146,15.0807,4.5527,1.0
B12 H12 K2,3,0.0,0.0769,0.0,0.0,0.0,0.0,0.4615,0.0,0.0,0.0,1.0,1.38,0.3548,1.95,0.5257,3.0,0.8213,True,cubic,m-3,202,12.0531,1.1659,1.0
Bi1 F3,2,0.0,0.0,0.0,0.0,0.75,0.0,0.0,0.0,0.0,0.0,0.0,1.96,0.8487,1.1,0.4763,4.0,1.7321,True,cubic,m-3m,225,11.975,9.2206,1.0
Hg4 K4,2,0.0,0.5,0.0,0.0,0.0,0.0,0.0,0.0,0.0,0.5,1.0,1.18,0.59,0.7,0.35,2.0,1.0,True,triclinic,-1,2,40.0655,4.967,0.9291
I2 O8 Tl2,3,0.0,0.0,0.0,0.6667,0.1667,0.0,0.0,0.0,0.0,0.0,-1.3333,1.82,0.6824,1.3,0.5156,4.0,1.675,True,tetragonal,4/m,88,19.8561,5.5095,0.7625
Sn10 Ti12,2,0.0,0.0,0.0,0.0,0.0,0.0,0.0,0.0,0.0,0.5455,0.3636,0.42,0.2091,0.05,0.0249,1.0,0.4979,True,hexagonal,6/mmm,194,19.514,6.8134,1.6263
Li8 O10 Se2,3,0.0,0.4,0.0,0.6,0.0,0.0,0.0,0.0,0.0,0.0,-0.8,2.46,1.1613,0.85,0.404,2.0,0.6,True,monoclinic,2/m,15,10.1523,3.0541,0.6659
C12 H24 S36,3,0.0,0.0,0.0,0.0,0.0,0.0,0.0,0.0,0.0,0.0,-2.0,0.38,0.1759,0.75,0.3354,2.0,0.8975,True,monoclinic,2/m,14,20.4656,1.4905,0.3138
As12 Na20 Sn4,3,0.0,0.5556,0.0,0.0,0.0,0.0,0.3333,0.0,0.0,0.0,-0.8889,1.25,0.5972,0.65,0.2986,2.0,0.6849,True,monoclinic,2/m,14,25.3928,3.3309,0.5598
Br1 N1 Sr2,3,0.0,0.0,0.5,0.0,0.25,0.0,0.0,0.0,0.0,0.0,0.0,2.09,1.0254,1.35,0.5777,3.0,1.2247,True,trigonal,-3m,166,25.1052,4.4506,1.0
Au4 O6,2,0.0,0.0,0.0,0.6,0.0,0.0,0.0,0.0,0.0,0.4,0.0,0.9,0.4409,0.75,0.3674,4.0,1.9596,True,orthorhombic,mm2,43,14.1033,10.4067,0.5938
Ge10 Ti12,2,0.0,0.0,0.0,0.0,0.0,0.0,0.4545,0.0,0.0,0.5455,0.3636,0.47,0.234,0.15,0.0747,0.0,0.0,True,orthorhombic,mmm,72,16.109,6.0949,0.5369
Gd2 O4,2,0.0,0.0,0.0,0.6667,0.0,0.3333,0.0,0.0,0.3333,0.0,-0.3333,2.24,1.0559,1.2,0.5657,6.0,2.8284,True,tetragonal,4/mmm,129,12.2625,8.5425,0.5218
B2 Nb2,2,0.0,0.0,0.0,0.0,0.0,0.0,0.5,0.0,0.0,0.5,4.0,0.44,0.22,0.6,0.3,3.0,1.5,True,orthorhombic,mmm,63,11.5728,7.441,0.6782
Pu1 Sb1,2,0.5,0.0,0.0,0.0,0.0,0.0,0.5,0.0,0.5,0.0,0.5,0.77,0.385,0.3,0.15,4.0,2.0,True,cubic,m-3m,225,30.7922,9.8622,1.0
In1 Pu1,2,0.5,0.0,0.0,0.0,0.0,0.0,0.0,0.0,0.5,0.0,3.5,0.5,0.25,0.2,0.1,4.0,2.0,True,tetragonal,4/mmm,123,25.6323,11.6227,0.6489
La1 Li3 P2,3,0.0,0.5,0.0,0.0,0.0,0.1667,0.0,0.0,0.1667,0.1667,0.0,1.21,0.5579,0.95,0.3236,6.0,2.1344,True,trigonal,-3m,164,17.8213,3.4425,0.6159
Cs4 Te4,2,0.0,0.5,0.0,0.5,0.0,0.0,0.5,0.0,0.0,0.0,-0.5,1.31,0.655,1.2,0.6,1.0,0.5,True,orthorhombic,mmm,55,47.6964,4.5347,0.4317
Cs4 O6 Pr2,3,0.0,0.3333,0.0,0.5,0.0,0.1667,0.0,0.0,0.1667,0.0,-0.1667,2.65,1.2734,2.0,0.91,6.0,2.4267,True,orthorhombic,mm2,36,26.0111,4.8382,0.9465
F3 Hg1 Rb1,3,0.0,0.2,0.0,0.0,0.6,0.0,0.0,0.0,0.0,0.2,-0.2,3.16,1.3132,1.85,0.7481,4.0,1.7436,True,cubic,m-3m,221,19.7909,5.7567,1.0
B2 C8 N8 Rb2,4,0.0,0.1,0.0,0.0,0.0,0.0,0.1,0.0,0.0,0.0,-2.4,2.22,0.6485,1.7,0.4999,3.0,0.9,True,tetragonal,4/m,88,20.1151,1.6539,0.7979
Br4 Nd4 S4,3,0.0,0.0,0.0,0.0,0.3333,0.3333,0.0,0.0,0.3333,0.0,0.0,1.82,0.7839,0.85,0.3704,5.0,2.1602,True,monoclinic,2/m,14,29.0002,4.8902,0.9856
Mn4 Se8,2,0.0,0.0,0.0,0.6667,0.0,0.0,0.0,0.0,0.0,0.3333,-0.6667,1.0,0.4714,0.25,0.1179,0.0,0.0,True,cubic,m-3,205,19.5251,6.0343,1.0
Co4 O12 Se4,3,0.0,0.0,0.0,0.8,0.0,0.0,0.0,0.0,0.0,0.2,-1.2,1.56,0.6364,0.75,0.3247,2.0,0.9798,True,orthorhombic,mmm,62,11.7401,5.2586,0.6636
Ag2 Ni2 O4,3,0.0,0.0,0.0,0.5,0.0,0.0,0.0,0.0,0.0,0.5,-0.25,1.53,0.76,1.0,0.4463,3.0,1.299,True,hexagonal,6/mmm,194,11.9917,6.8739,0.2435
Cs2 F5 O1 Tl1 Zr1,5,0.0,0.2,0.0,0.1,0.5,0.0,0.0,0.0,0.0,0.1,0.0,3.19,1.3785,2.1,0.8565,4.0,1.8574,True,tetragonal,4mm,107,22.5545,4.9505,1.0
Ir1 Y1,2,0.0,0.0,0.0,0.0,0.0,0.0,0.0,0.0,0.0,1.0,3.0,0.98,0.49,0.45,0.225,1.0,0.5,True,cubic,m-3m,221,20.3239,11.4844,1.0
F2 O24 P6 Pb10,4,0.0,0.0,0.0,0.5714,0.0476,0.0,0.0,0.0,0.0,0.0,-1.1429,1.79,0.597,1.3,0.5019,4.0,1.6592,True,hexagonal,6/m,176,15.5245,6.8248,1.3406
Hg1 Na4 P2,3,0.0,0.5714,0.0,0.0,0.0,0.0,0.0,0.0,0.0,0.1429,-0.1429,1.26,0.5951,0.8,0.3493,3.0,1.0498,True,trigonal,-3m,166,26.8478,3.1322,1.0
Cr4 K6 Na2 O16,4,0.0,0.2857,0.0,0.5714,0.0,0.0,0.0,0.0,0.0,0.1429,-0.4286,2.62,1.1762,1.6,0.6694,2.0,0.9395,True,monoclinic,2/m,15,16.765,2.6338,0.3893
Al4 Tm2,2,0.0,0.0,0.0,0.0,0.0,0.3333,0.0,0.0,0.3333,0.0,3.0,0.36,0.1697,0.5,0.2357,5.0,2.357,True,cubic,m-3m,227,19.7652,6.2421,1.0
O12 Si4 Ti2,3,0.0,0.0,0.0,0.6667,0.0,0.0,0.2222,0.0,0.0,0.1111,-1.7778,1.9,0.7886,0.8,0.2944,2.0,0.6849,True,monoclinic,2/m,15,12.0638,3.0593,1.2267
K8 P6,2,0.0,0.5714,0.0,0.0,0.0,0.0,0.0,0.0,0.0,0.0,-0.7143,1.37,0.678,1.2,0.5938,1.0,0.4949,True,orthorhombic,mmm,63,30.869,1.9159,0.3336
Ba4 K4 Nb4 S16,4,0.0,0.1429,0.1429,0.0,0.0,0.0,0.0,0.0,0.0,0.1429,-0.0,1.76,0.7663,1.2,0.5134,3.0,1.1249,True,orthorhombic,mmm,62,30.115,3.1319,0.554
Sc2 Te2,2,0.0,0.0,0.0,0.5,0.0,0.0,0.5,0.0,0.0,0.5,0.5,0.74,0.37,0.2,0.1,1.0,0.5,True,hexagonal,6/mmm,194,25.8064,5.5516,0.5972
F4 H2 K2,3,0.0,0.25,0.0,0.0,0.5,0.0,0.0,0.0,0.0,0.0,-0.5,3.16,1.3279,1.95,0.7789,3.0,1.0897,True,tetragonal,4/mmm,140,14.0736,2.3038,1.0
Ni4 S8,2,0.0,0.0,0.0,0.0,0.0,0.0,0.0,0.0,0.0,0.3333,-0.6667,0.67,0.3158,0.35,0.165,1.0,0.4714,True,triclinic,1,1,14.6835,4.63,0.9936
Ba2 S4 Zr1,3,0.0,0.0,0.2857,0.0,0.0,0.0,0.0,0.0,0.0,0.1429,0.0,1.69,0.7757,1.15,0.5053,3.0,1.3553,True,tetragonal,4/mmm,139,28.4986,4.1132,0.576
O20 Ti4 Y8,3,0.0,0.0,0.0,0.625,0.0,0.0,0.0,0.0,0.0,0.375,0.0,2.22,1.0273,1.2,0.5292,3.0,1.3229,True,orthorhombic,mmm,62,13.7808,4.6041,0.3276
Ca3 Mn2 O7,3,0.0,0.0,0.25,0.5833,0.0,0.0,0.0,0.0,0.0,0.1667,-0.3333,2.44,1.1082,1.2,0.5281,2.0,0.986,True,tetragonal,4/mmm,139,11.6178,4.0748,0.3768
As8 Nd4,2,0.0,0.0,0.0,0.0,0.0,0.3333,0.6667,0.0,0.3333,0.0,-1.0,1.04,0.4903,0.7,0.33,4.0,1.8856,True,monoclinic,2/m,14,24.2612,6.7095,0.4055
Er2 Fe8 Ge4,3,0.0,0.0,0.0,0.0,0.0,0.1429,0.2857,0.0,0.1429,0.5714,0.4286,0.77,0.2406,0.5,0.1545,4.0,1.3997,True,tetragonal,4/mmm,136,14.392,8.8334,0.5354
B4 Ti4,2,0.0,0.0,0.0,0.0,0.0,0.0,0.5,0.0,0.0,0.5,3.5,0.5,0.25,0.55,0.275,2.0,1.0,True,orthorhombic,mmm,62,10.6664,4.5675,0.4992
Ag2 Pb2 Pr2,3,0.0,0.0,0.0,0.0,0.0,0.3333,0.0,0.0,0.3333,0.3333,2.0,1.2,0.4989,0.25,0.108,3.0,1.2472,True,hexagonal,6mm,186,27.2254,9.2703,0.6326
Ge2 Tb2 Ti2,3,0.0,0.0,0.0,0.0,0.0,0.3333,0.3333,0.0,0.3333,0.3333,1.0,2.01,0.8585,0.5,0.2095,4.0,1.8856,True,tetragonal,4/mmm,129,21.3185,7.2552,0.5264
H8 La8 O8,3,0.0,0.0,0.0,0.3333,0.0,0.3333,0.0,0.0,0.3333,0.3333,0.0,2.34,0.9559,1.7,0.733,7.0,3.0912,True,tetragonal,4/mmm,129,15.5533,5.5487,0.7065
Ag2 La2 O8 Ti2,4,0.0,0.0,0.0,0.5714,0.0,0.1429,0.0,0.0,0.1429,0.4286,0.0,2.34,0.9741,1.35,0.5405,6.0,2.1285,True,tetragonal,4/mmm,129,13.6524,6.2316,0.2756
Cu16 K8 Te22,3,0.0,0.1739,0.0,0.4783,0.0,0.0,0.4783,0.0,0.0,0.3478,-0.087,1.28,0.462,0.85,0.312,1.0,0.4995,True,monoclinic,2/m,12,27.8431,5.3633,0.4327
K8 N16 O32 Pt4,4,0.0,0.1333,0.0,0.5333,0.0,0.0,0.0,0.0,0.0,0.0667,-1.6,2.62,0.8736,1.6,0.5504,4.0,1.147,True,monoclinic,2/m,14,16.3919,3.0884,0.6058
B8 O24 Pr2 Sc6,4,0.0,0.0,0.0,0.6,0.0,0.05,0.2,0.0,0.05,0.15,0.0,2.31,0.8984,1.25,0.4144,6.0,1.4283,True,monoclinic,2/m,15,11.3377,3.7422,0.5188
Pd2 Si2 Tb1,3,0.0,0.0,0.0,0.0,0.0,0.2,0.4,0.0,0.2,0.4,-0.2,2.2,0.8309,0.65,0.2408,5.0,1.833,True,tetragonal,4/mmm,139,17.3204,8.2054,0.7196
Cd8 P16,2,0.0,0.0,0.0,0.0,0.0,0.0,0.0,0.0,0.0,0.3333,-1.3333,0.5,0.2357,0.55,0.2593,2.0,0.9428,True,tetragonal,422,92,23.9895,4.023,0.268
Al8 Br8 La10,3,0.0,0.0,0.0,0.0,0.3077,0.3846,0.0,0.0,0.3846,0.3846,1.7692,1.86,0.7828,0.8,0.367,5.0,2.2241,True,tetragonal,4/mmm,140,27.1261,5.2837,0.709
Ca4 Mo4 O12,3,0.0,0.0,0.2,0.6,0.0,0.0,0.0,0.0,0.0,0.2,0.0,2.44,0.9823,1.2,0.5142,3.0,1.2649,True,orthorhombic,mmm,62,12.5852,4.856,0.6919
P1 Pu1,2,0.5,0.0,0.0,0.0,0.0,0.0,0.0,0.0,0.5,0.0,0.5,0.91,0.455,0.75,0.375,6.0,3.0,True,cubic,m-3m,225,22.7165,10.0501,1.0
Cl20 Cs4 Pd8,3,0.0,0.125,0.0,0.0,0.625,0.0,0.0,0.0,0.0,0.25,0.0,2.37,0.8031,1.6,0.5196,3.0,1.1659,True,orthorhombic,mmm,62,31.0712,3.4939,0.3408
Cs3 F6 Y1,3,0.0,0.3,0.0,0.0,0.6,0.0,0.0,0.0,0.0,0.1,0.0,3.19,1.5147,2.1,0.9562,4.0,1.8574,True,tetragonal,4/mmm,139,27.0089,3.6988,1.0101
K2 Na2 O12 V4,4,0.0,0.2,0.0,0.6,0.0,0.0,0.0,0.0,0.0,0.2,0.0,2.62,1.0982,1.6,0.5724,2.0,0.9,True,monoclinic,2/m,15,15.9905,2.6996,0.794
Ge2 Mn4,2,0.0,0.0,0.0,0.0,0.0,0.0,0.3333,0.0,0.0,0.6667,0.0,0.46,0.2168,0.15,0.0707,0.0,0.0,True,hexagonal,6/mmm,194,12.9192,7.8198,0.82
B2 Na4 O6 Rb2,4,0.0,0.4286,0.0,0.4286,0.0,0.0,0.1429,0.0,0.0,0.0,0.0,2.62,1.1802,1.75,0.6803,3.0,1.0302,True,orthorhombic,mmm,59,14.3112,3.1537,0.9082
Ba8 Cr4 O24 Ta4,4,0.0,0.0,0.2,0.6,0.0,0.0,0.0,0.0,0.0,0.2,0.0,2.55,1.1026,1.55,0.6254,4.0,1.8,True,hexagonal,6/mmm,194,14.0387,7.1395,0.3039
Li12 Te36,2,0.0,0.25,0.0,0.75,0.0,0.0,0.75,0.0,0.0,0.0,-1.25,1.12,0.485,0.05,0.0217,3.0,1.299,True,trigonal,-3m,165,29.9072,5.4099,0.408
Bi4 Li6 O36 P10,4,0.0,0.1071,0.0,0.6429,0.0,0.0,0.0,0.0,0.0,0.0,-1.5,2.46,0.8517,1.0,0.3503,4.0,1.0516,True,triclinic,-1,2,13.4966,3.874,1.4479
Mn6 Sn6 Y1,3,0.0,0.0,0.0,0.0,0.0,0.0,0.0,0.0,0.0,0.5385,-0.6923,0.74,0.2431,0.4,0.1028,1.0,0.4985,True,hexagonal,6/mmm,191,17.8879,8.0747,0.6062
Cl6 K2 Ta1,3,0.0,0.2222,0.0,0.0,0.6667,0.0,0.0,0.0,0.0,0.1111,0.1111,2.34,1.0133,1.2,0.4922,3.0,0.9558,True,cubic,m-3m,225,28.7296,3.0303,1.0
Li6 Mn4 O24 P6,4,0.0,0.15,0.0,0.6,0.0,0.0,0.0,0.0,0.0,0.1,-1.3,2.46,0.9714,0.85,0.3533,2.0,0.6538,True,triclinic,-1,2,10.8396,3.1834,1.408
Ge2 Pr1 Rh2,3,0.0,0.0,0.0,0.0,0.0,0.2,0.4,0.0,0.2,0.4,0.2,1.15,0.4236,0.6,0.2245,4.0,1.4697,True,tetragonal,4/mmm,139,18.6771,8.7485,0.69
Gd4 O14 Ti4,3,0.0,0.0,0.0,0.6364,0.0,0.1818,0.0,0.0,0.1818,0.1818,0.0,2.24,1.001,1.2,0.4959,6.0,2.2709,True,cubic,m-3m,227,12.2652,6.4275,1.0
K2 O24 P8 Y2,4,0.0,0.0556,0.0,0.6667,0.0,0.0,0.0,0.0,0.0,0.0556,-1.7778,2.62,0.8388,1.6,0.445,3.0,0.8333,True,monoclinic,2,4,13.7266,2.9833,0.8701
In2 O8 P2,3,0.0,0.0,0.0,0.6667,0.0,0.0,0.0,0.0,0.0,0.0,-1.3333,1.66,0.696,0.95,0.3556,3.0,1.1055,True,orthorhombic,mmm,63,12.6797,4.579,0.7055
Cu4 La4 Se8,3,0.0,0.0,0.0,0.5,0.0,0.25,0.0,0.0,0.25,0.5,0.25,1.45,0.5963,0.8,0.3279,4.0,1.7321,True,monoclinic,2/m,14,23.4934,6.3679,0.8998
F6 Pt1 Rb2,3,0.0,0.2222,0.0,0.0,0.6667,0.0,0.0,0.0,0.0,0.1111,-0.2222,3.16,1.3214,1.85,0.765,4.0,1.5947,True,trigonal,-3m,164,17.6701,5.0121,1.2294
Co1 Ge3 Pr1,3,0.0,0.0,0.0,0.0,0.0,0.2,0.6,0.0,0.2,0.2,-1.4,0.88,0.3427,0.6,0.2332,4.0,1.6,True,tetragonal,4mm,107,18.7267,7.4088,0.7431
Cl28 In4 Y8,3,0.0,0.0,0.0,0.0,0.7,0.0,0.0,0.0,0.0,0.2,0.2,1.94,0.8164,0.8,0.3347,2.0,0.9165,True,orthorhombic,mmm,62,29.3748,3.0571,0.528
Al8 H36 N4 O44 P8,5,0.0,0.0,0.0,0.44,0.0,0.0,0.0,0.0,0.0,0.0,-1.36,1.83,0.6712,1.0,0.2987,2.0,0.6928,True,monoclinic,2/m,14,8.8198,2.3721,0.9925
Se2,1,0.0,0.0,0.0,1.0,0.0,0.0,0.0,0.0,0.0,0.0,-2.0,0.0,0.0,0.0,0.0,0.0,0.0,True,cubic,m-3m,227,31.8966,4.1107,1.0
Er4 Fe2 Si4,3,0.0,0.0,0.0,0.0,0.0,0.4,0.4,0.0,0.4,0.2,0.0,0.66,0.3129,0.65,0.2909,5.0,2.3152,True,monoclinic,2/m,12,18.4393,8.0425,0.4638
Ga9 Ni13,2,0.0,0.0,0.0,0.0,0.0,0.0,0.0,0.0,0.0,0.5909,2.4091,0.1,0.0492,0.05,0.0246,0.0,0.0,True,monoclinic,2/m,12,12.3002,8.5328,0.8007
Ba1 F6 Pb1,3,0.0,0.0,0.125,0.0,0.75,0.0,0.0,0.0,0.0,0.0,-0.25,3.09,1.0876,1.65,0.6447,4.0,1.7321,True,trigonal,-3m,166,16.6963,5.7002,1.0
Dy6 Ni4,2,0.0,0.0,0.0,0.0,0.0,0.6,0.0,0.0,0.6,0.4,2.6,0.69,0.338,0.4,0.196,4.0,1.9596,True,monoclinic,2/m,12,22.2988,9.0089,0.3846
Al16 Ca8 O64 Si16,4,0.0,0.0,0.0769,0.6154,0.0,0.0,0.1538,0.0,0.0,0.0,-1.2308,2.44,0.9162,1.2,0.3765,2.0,0.6343,True,triclinic,-1,2,13.3347,2.665,0.6329
Ce4 N20 Si12,3,0.0,0.0,0.0,0.0,0.0,0.1111,0.3333,0.0,0.1111,0.0,-2.6667,1.92,0.7005,1.2,0.3837,6.0,1.8257,True,orthorhombic,222,19,11.9254,4.5549,0.4255
Ge2 Nb6,2,0.0,0.0,0.0,0.0,0.0,0.0,0.25,0.0,0.0,0.75,2.75,0.41,0.1775,0.2,0.0866,1.0,0.433,True,cubic,m-3m,223,17.3907,8.3873,1.0
O48 P16 Pb8,3,0.0,0.0,0.0,0.6667,0.0,0.0,0.0,0.0,0.0,0.0,-1.7778,1.25,0.5685,1.2,0.3823,4.0,1.2472,True,monoclinic,2/m,14,14.8637,4.5326,0.4186
Er4 Ge4 Na4 O16,4,0.0,0.1429,0.0,0.5714,0.0,0.1429,0.1429,0.0,0.1429,0.0,-1.1429,2.51,1.0556,1.2,0.5209,6.0,2.0504,True,orthorhombic,mmm,62,14.0194,5.5312,0.4645
Co16 P12 Zr8,3,0.0,0.0,0.0,0.0,0.0,0.0,0.0,0.0,0.0,0.6667,0.7778,0.86,0.3145,0.55,0.211,2.0,0.737,True,hexagonal,-6m2,189,12.9669,7.2724,3.3027
Mn2 Se2,2,0.0,0.0,0.0,0.5,0.0,0.0,0.0,0.0,0.0,0.5,0.0,1.0,0.5,0.25,0.125,0.0,0.0,True,hexagonal,6/mmm,194,19.2599,5.7722,0.6462
H24 O12,2,0.0,0.0,0.0,0.3333,0.0,0.0,0.0,0.0,0.0,0.0,-1.3333,1.24,0.5845,0.35,0.165,1.0,0.4714,True,trigonal,-3,148,8.0195,1.2434,1.0
Na4 Se6 Zr2,3,0.0,0.3333,0.0,0.5,0.0,0.0,0.0,0.0,0.0,0.1667,-0.0,1.62,0.7552,0.65,0.2953,2.0,0.6872,True,monoclinic,2/m,12,24.6422,4.2013,0.9549
Ge2 Rb4 S6,3,0.0,0.3333,0.0,0.0,0.0,0.0,0.1667,0.0,0.0,0.0,-1.3333,1.76,0.7887,1.35,0.6133,2.0,0.8975,True,monoclinic,2/m,12,32.4593,2.897,0.7926
Ba4 O12 Pr2 Ru2,4,0.0,0.0,0.2,0.6,0.0,0.1,0.0,0.0,0.1,0.1,-0.2,2.55,1.1134,1.55,0.6563,6.0,2.1932,True,monoclinic,2/m,14,15.998,6.3589,0.7127
Al6 Dy2 Pt1 Si4,4,0.0,0.0,0.0,0.0,0.0,0.1538,0.3077,0.0,0.1538,0.0769,0.7692,1.06,0.278,0.65,0.2114,5.0,1.8811,True,trigonal,-3m,166,19.5542,5.1887,1.0
Li4 Mo8 O48 P12,4,0.0,0.0556,0.0,0.6667,0.0,0.0,0.0,0.0,0.0,0.1111,-1.3333,2.46,0.7357,0.85,0.322,3.0,0.9574,True,orthorhombic,mmm,57,14.4137,3.0961,0.7266
F4 S4 Y4,3,0.0,0.0,0.0,0.0,0.3333,0.0,0.0,0.0,0.0,0.3333,0.0,2.76,1.1268,1.3,0.5354,3.0,1.2472,True,hexagonal,6/mmm,194,20.1859,3.8381,0.2425
B6 Ni23,2,0.0,0.0,0.0,0.0,0.0,0.0,0.2069,0.0,0.0,0.7931,2.2069,0.13,0.0527,0.5,0.2025,2.0,0.8102,True,cubic,m-3m,225,9.7359,8.321,1.0
As1 B1,2,0.0,0.0,0.0,0.0,0.0,0.0,1.0,0.0,0.0,0.0,0.0,0.14,0.07,0.3,0.15,2.0,1.0,True,cubic,-43m,216,13.991,5.0876,1.0
Li1 Ni1 O7 P2,4,0.0,0.0909,0.0,0.6364,0.0,0.0,0.0,0.0,0.0,0.0909,-1.5455,2.46,0.836,0.85,0.3135,2.0,0.6428,True,monoclinic,2,5,10.9986,3.2882,1.1703
Cr4 Se24 Sm12,3,0.0,0.0,0.0,0.6,0.0,0.3,0.0,0.0,0.3,0.1,0.0,1.38,0.6305,0.7,0.3131,4.0,1.833,True,orthorhombic,mmm,58,24.1112,6.7275,0.2373
Cd1 K2 N12,3,0.0,0.1333,0.0,0.0,0.0,0.0,0.0,0.0,0.0,0.0667,-2.1333,2.22,0.7935,1.55,0.5507,3.0,0.9568,True,monoclinic,2/m,12,16.9683,2.3401,0.4325
Al1 Co1,2,0.0,0.0,0.0,0.0,0.0,0.0,0.0,0.0,0.0,0.5,2.5,0.27,0.135,0.1,0.05,1.0,0.5,True,cubic,m-3m,221,11.6127,6.1426,1.0
Bi4 O18 Sr2 Ta4,4,0.0,0.0,0.0714,0.6429,0.0,0.0,0.0,0.0,0.0,0.1429,-0.0,2.49,0.9142,1.4,0.5034,4.0,1.8364,True,orthorhombic,mm2,36,14.3325,8.3705,0.4297
Co2 P2 Zr4,3,0.0,0.0,0.0,0.0,0.0,0.0,0.0,0.0,0.0,0.75,1.75,0.86,0.3691,0.55,0.2247,2.0,0.8292,True,monoclinic,2/m,11,16.8029,6.7288,0.4903
Ga2 Sr1 Te4,3,0.0,0.0,0.1429,0.5714,0.0,0.0,0.5714,0.0,0.0,0.0,0.0,1.15,0.3897,0.7,0.2259,1.0,0.4518,True,tetragonal,422,97,34.0565,5.1368,1.0
Mg2 O8 Rh4,3,0.0,0.0,0.1429,0.5714,0.0,0.0,0.0,0.0,0.0,0.2857,0.0,2.13,0.7928,0.9,0.3986,3.0,1.3093,True,cubic,m-3m,227,11.6083,6.0103,1.0
Cu4 Nb2 O16 Sm2 Sr4,5,0.0,0.0,0.1429,0.5714,0.0,0.0714,0.0,0.0,0.0714,0.2143,0.0,2.49,1.0386,1.4,0.5609,6.0,1.7971,True,tetragonal,4/mmm,140,12.8785,6.2038,0.4431