formula,numberOfSpecies,fracActinoid,fracAlkali,fracAlkaline,fracChalcogen,fracHalogen,fracLanthanoid,fracMetalloid,fracNobleGas,fracRareEarth,fracTransitionMetal,electronsPerAtom,electronegativityRange,electronegativityStd,radiiRange,radiiStd,rowRange,rowStd,ordered,crystalSystem,pointGroup,spaceGroupNumber,volumePerSite,density,c_a
Br6 Fe2,2,0.0,0.0,0.0,0.0,0.75,0.0,0.0,0.0,0.0,0.25,-0.25,1.13,0.4893,0.25,0.1083,0.0,0.0,True,trigonal,-3,148,27.8732,4.4019,1.0
Be16 H96 K16 N48,4,0.0,0.0909,0.0909,0.0,0.0,0.0,0.0,0.0,0.0,0.0,-1.0909,2.22,0.6321,1.95,0.5644,3.0,0.8814,True,orthorhombic,mmm,61,11.1668,1.3002,0.8502
Ag1 Au1 Cd2,3,0.0,0.0,0.0,0.0,0.0,0.0,0.0,0.0,0.0,1.0,2.0,0.85,0.3475,0.25,0.096,1.0,0.433,True,cubic,m-3m,225,19.5684,11.2364,1.0
Er1 Tl1,2,0.0,0.0,0.0,0.0,0.0,0.5,0.0,0.0,0.5,0.0,2.0,0.38,0.19,0.15,0.075,2.0,1.0,True,cubic,m-3m,221,26.9018,11.47,1.0
Rb4 Sb12 Se20,3,0.0,0.1111,0.0,0.5556,0.0,0.0,0.3333,0.0,0.0,0.0,-2.0,1.73,0.5358,1.2,0.3682,1.0,0.4969,True,monoclinic,2/m,14,32.3712,4.8193,0.6632
K12 O12 Sb4,3,0.0,0.4286,0.0,0.4286,0.0,0.0,0.1429,0.0,0.0,0.0,-0.8571,2.62,1.2131,1.6,0.7409,3.0,1.1606,True,cubic,23,198,22.1666,3.0719,1.0
Al4 I16 Na4,3,0.0,0.1667,0.0,0.0,0.6667,0.0,0.0,0.0,0.0,0.0,0.0,1.73,0.684,0.55,0.1694,2.0,0.9428,True,orthorhombic,mmm,62,44.947,3.4333,0.5584
K4 O12,2,0.0,0.25,0.0,0.75,0.0,0.0,0.0,0.0,0.0,0.0,-1.25,2.62,1.1345,1.6,0.6928,2.0,0.866,True,tetragonal,4/mmm,140,17.6425,2.0494,1.0
Nb6 O16 Sr1,3,0.0,0.0,0.0435,0.6957,0.0,0.0,0.0,0.0,0.0,0.2609,0.0,2.49,0.8982,1.4,0.4403,3.0,1.3804,True,orthorhombic,mm2,38,13.4922,4.8215,0.4267
F6 Pt1 Zn1,3,0.0,0.0,0.0,0.0,0.75,0.0,0.0,0.0,0.0,0.25,-0.25,2.33,0.8866,0.85,0.3681,4.0,1.3919,True,trigonal,-3,148,13.2298,5.8754,1.0
F44 Sr10 Zr6,3,0.0,0.0,0.1667,0.0,0.7333,0.0,0.0,0.0,0.0,0.1,0.0,3.03,1.2804,1.5,0.5994,3.0,1.3266,True,orthorhombic,222,18,14.1489,4.4196,0.7394
Ca7 Ge1,2,0.0,0.0,0.875,0.0,0.0,0.0,0.125,0.0,0.0,0.0,1.25,1.01,0.334,0.55,0.1819,0.0,0.0,True,cubic,m-3m,225,36.4264,2.0125,1.0
Ga3 Sc1,2,0.0,0.0,0.0,0.0,0.0,0.0,0.0,0.0,0.0,0.25,3.0,0.45,0.1949,0.3,0.1299,0.0,0.0,True,cubic,m-3m,221,17.5042,6.0269,1.0
Ce1 Co2 P2,3,0.0,0.0,0.0,0.0,0.0,0.2,0.0,0.0,0.2,0.4,0.2,1.07,0.3914,0.85,0.3121,5.0,1.8547,True,tetragonal,4/mmm,139,14.4123,7.3722,0.7071
Co2 K2 O4,3,0.0,0.25,0.0,0.5,0.0,0.0,0.0,0.0,0.0,0.25,-0.25,2.62,1.1102,1.6,0.6599,2.0,1.0,True,tetragonal,4/mmm,129,14.913,3.6197,0.4804
Ge6 O30 Sc12,3,0.0,0.0,0.0,0.625,0.0,0.0,0.125,0.0,0.0,0.25,-1.0,2.08,0.9214,1.0,0.4394,2.0,0.9682,True,monoclinic,2/m,15,13.0498,3.8579,0.7101
Au4 Cl28 Se4,3,0.0,0.0,0.0,0.1111,0.7778,0.0,0.0,0.0,0.0,0.1111,-0.6667,0.62,0.2557,0.35,0.1141,3.0,0.9558,True,monoclinic,2/m,14,32.7851,2.9495,0.6956
O8 Sc2 V2,3,0.0,0.0,0.0,0.6667,0.0,0.0,0.0,0.0,0.0,0.3333,0.0,2.08,0.9202,1.0,0.4187,2.0,0.9428,True,tetragonal,4/mmm,141,12.198,3.6278,1.0
Pt1 Te2,2,0.0,0.0,0.0,0.6667,0.0,0.0,0.6667,0.0,0.0,0.3333,-0.6667,0.18,0.0849,0.05,0.0236,1.0,0.4714,True,trigonal,-3m,164,25.8401,9.6454,0.7656
Cu6 S4 Tl2,3,0.0,0.0,0.0,0.0,0.0,0.0,0.0,0.0,0.0,0.5,0.5,0.96,0.3672,0.9,0.301,3.0,1.0,True,monoclinic,2/m,12,18.2494,6.9632,0.4561
Na2 Nd4 O12 Os2,4,0.0,0.1,0.0,0.6,0.0,0.2,0.0,0.0,0.2,0.1,-0.1,2.51,1.0698,1.25,0.5585,6.0,2.4515,True,monoclinic,2/m,14,13.4205,7.3954,0.6921
Cd1 Ho1,2,0.0,0.0,0.0,0.0,0.0,0.5,0.0,0.0,0.5,0.5,2.5,0.46,0.23,0.2,0.1,3.0,1.5,True,cubic,m-3m,221,26.0575,8.8369,1.0
Li4 Mo4 O48 P16,4,0.0,0.0556,0.0,0.6667,0.0,0.0,0.0,0.0,0.0,0.0556,-1.7222,2.46,0.7339,0.85,0.2867,3.0,0.7556,True,orthorhombic,mmm,60,14.6712,2.6332,1.3466
Al2 Na6 P8 Sr6,4,0.0,0.2727,0.2727,0.0,0.0,0.0,0.0,0.0,0.0,0.0,0.0,1.26,0.586,1.0,0.4349,2.0,0.8907,True,hexagonal,6mm,186,25.9367,2.8095,1.2755
B16 Ce4 Re4,3,0.0,0.0,0.0,0.0,0.0,0.1667,0.6667,0.0,0.1667,0.1667,3.1667,0.92,0.3363,1.0,0.3819,6.0,2.4267,True,orthorhombic,mmm,55,10.7424,9.5211,0.3157
Ba4 Si2 Te8,3,0.0,0.0,0.2857,0.5714,0.0,0.0,0.7143,0.0,0.0,0.0,-1.1429,1.21,0.5329,1.05,0.3797,3.0,0.9258,True,monoclinic,2/m,11,38.7889,4.9729,0.7859
Ca2 In8 Rh2,3,0.0,0.0,0.1667,0.0,0.0,0.0,0.0,0.0,0.0,0.1667,2.8333,1.28,0.3754,0.45,0.1304,1.0,0.3727,True,orthorhombic,mmm,51,23.7887,7.0066,0.4881
Hg1 In2 Se4,3,0.0,0.0,0.0,0.5714,0.0,0.0,0.0,0.0,0.0,0.1429,-0.1429,0.77,0.3514,0.4,0.1903,2.0,0.7284,True,tetragonal,-4,82,30.499,5.8029,0.8248
Bi4 O26 P8,3,0.0,0.0,0.0,0.6842,0.0,0.0,0.0,0.0,0.0,0.0,-1.6842,1.42,0.609,1.0,0.321,4.0,1.223,True,monoclinic,2/m,15,14.3841,4.556,0.5216
Al4 Ce3 Si6,3,0.0,0.0,0.0,0.0,0.0,0.2308,0.4615,0.0,0.2308,0.0,-0.2308,0.78,0.3063,0.75,0.2978,5.0,2.1066,True,trigonal,-3m,164,20.5171,4.338,0.2343
Al12 Mg17,2,0.0,0.0,0.5862,0.0,0.0,0.0,0.0,0.0,0.0,0.0,2.4138,0.3,0.1478,0.25,0.1231,0.0,0.0,True,cubic,-43m,217,20.1657,2.0926,1.0
Pr1 S1,2,0.0,0.0,0.0,0.0,0.0,0.5,0.0,0.0,0.5,0.0,0.5,1.45,0.725,0.85,0.425,5.0,2.5,True,cubic,m-3m,225,24.4857,5.8652,1.0
B52 H76,2,0.0,0.0,0.0,0.0,0.0,0.0,0.4063,0.0,0.0,0.0,0.625,0.16,0.0786,0.6,0.2947,1.0,0.4911,True,monoclinic,2/m,14,9.7774,0.8476,0.3309
Ge1 Mn1 Rh2,3,0.0,0.0,0.0,0.0,0.0,0.0,0.25,0.0,0.0,0.75,1.0,0.73,0.2982,0.15,0.0545,1.0,0.5,True,cubic,m-3m,225,14.1386,9.7889,1.0
I6 Na2 U1,3,0.1111,0.2222,0.0,0.0,0.6667,0.0,0.0,0.0,0.1111,0.0,0.2222,1.73,0.7548,0.4,0.1812,6.0,1.633,True,trigonal,-3,148,44.5503,4.3297,1.0
Fe2 Ge4,2,0.0,0.0,0.0,0.0,0.0,0.0,0.6667,0.0,0.0,0.3333,-2.0,0.18,0.0849,0.15,0.0707,0.0,0.0,True,tetragonal,4/mmm,140,14.4217,7.7193,1.0
B48 H64,2,0.0,0.0,0.0,0.0,0.0,0.0,0.4286,0.0,0.0,0.0,0.7143,0.16,0.0792,0.6,0.2969,1.0,0.4949,True,orthorhombic,mm2,33,13.8271,0.6256,0.798
Co4 Li4 O28 P8,4,0.0,0.0909,0.0,0.6364,0.0,0.0,0.0,0.0,0.0,0.0909,-1.5455,2.46,0.8391,0.85,0.3135,2.0,0.6428,True,monoclinic,m,7,11.9541,3.0285,1.4714
Dy4 Mn8 O20,3,0.0,0.0,0.0,0.625,0.0,0.125,0.0,0.0,0.125,0.25,-0.375,2.22,0.9729,1.15,0.4551,6.0,1.9843,True,orthorhombic,mmm,55,11.4001,6.4158,0.6754
B2 H2 O18 P4 Rb2 Sc2,6,0.0,0.0667,0.0,0.6,0.0,0.0,0.0667,0.0,0.0,0.0667,-1.2,2.62,0.8702,2.1,0.5016,4.0,0.9522,True,triclinic,-1,2,12.8404,3.0018,0.6337
Fe1 Ni3,2,0.0,0.0,0.0,0.0,0.0,0.0,0.0,0.0,0.0,1.0,2.0,0.08,0.0346,0.05,0.0217,0.0,0.0,True,cubic,m-3m,221,11.0824,8.6877,1.0
Rb6 Se6,2,0.0,0.5,0.0,0.5,0.0,0.0,0.0,0.0,0.0,0.0,-0.5,1.73,0.865,1.2,0.6,1.0,0.5,True,hexagonal,-6m2,189,40.7783,3.3478,1.4802
B2 Ce2 Pt8,3,0.0,0.0,0.0,0.0,0.0,0.1667,0.1667,0.0,0.1667,0.6667,2.3333,1.16,0.4236,1.0,0.2887,6.0,1.7951,True,hexagonal,6/mmm,191,16.7574,15.3803,0.709
Al1 Si1 Sr1,3,0.0,0.0,0.3333,0.0,0.0,0.0,0.3333,0.0,0.0,0.0,0.3333,0.95,0.3975,0.9,0.3937,2.0,0.9428,True,hexagonal,-6m2,187,24.9719,3.1627,0.8985
I8 Rb4 Zn2,3,0.0,0.2857,0.0,0.0,0.5714,0.0,0.0,0.0,0.0,0.1429,0.0,1.84,0.8149,1.0,0.434,1.0,0.3499,True,monoclinic,2/m,11,47.036,3.7521,0.7488
O16 Sb8,2,0.0,0.0,0.0,0.6667,0.0,0.0,0.3333,0.0,0.0,0.0,-2.3333,1.39,0.6553,0.85,0.4007,3.0,1.4142,True,cubic,m-3m,227,12.3575,6.8871,1.0
Ag4 Ba4,2,0.0,0.0,0.5,0.0,0.0,0.0,0.0,0.0,0.0,0.5,1.5,1.04,0.52,0.55,0.275,1.0,0.5,True,orthorhombic,mmm,62,37.2433,5.4662,0.571
B2 Mo4,2,0.0,0.0,0.0,0.0,0.0,0.0,0.3333,0.0,0.0,0.6667,3.6667,0.12,0.0566,0.6,0.2828,3.0,1.4142,True,tetragonal,4/mmm,140,12.338,9.0932,1.0
O4 Pu1 Sr1,3,0.1667,0.0,0.1667,0.6667,0.0,0.0,0.0,0.0,0.1667,0.0,-0.3333,2.49,1.1001,1.4,0.6054,7.0,2.6247,True,trigonal,-3m,166,13.8764,7.8903,1.0
Rb32 Si32,2,0.0,0.5,0.0,0.0,0.0,0.0,0.5,0.0,0.0,0.0,-1.5,1.08,0.54,1.25,0.625,2.0,1.0,True,cubic,-43m,218,35.8322,2.6311,1.0
As2 O8 Y2,3,0.0,0.0,0.0,0.6667,0.0,0.0,0.1667,0.0,0.0,0.1667,-1.3333,2.22,0.8658,1.2,0.4532,3.0,1.2134,True,tetragonal,4/mmm,141,13.6498,4.6193,1.0
O24 P8 Rb2 Sm2,4,0.0,0.0556,0.0,0.6667,0.0,0.0556,0.0,0.0,0.0556,0.0,-1.7778,2.62,0.8444,1.75,0.4766,6.0,1.4834,True,monoclinic,2/m,15,14.5444,3.4994,0.7124
B2 Li2 O4,3,0.0,0.25,0.0,0.5,0.0,0.0,0.25,0.0,0.0,0.0,0.0,2.46,1.0352,0.85,0.3473,0.0,0.0,True,tetragonal,-42m,122,7.3837,2.7971,0.9506
Cr2 Lu2 O8,3,0.0,0.0,0.0,0.6667,0.0,0.1667,0.0,0.0,0.1667,0.1667,-0.3333,2.17,0.9378,1.15,0.4706,4.0,1.5275,True,tetragonal,4/mmm,141,12.9405,6.2227,1.0
Ge16 Mg16 O48,3,0.0,0.0,0.2,0.6,0.0,0.0,0.2,0.0,0.0,0.0,-1.6,2.13,0.8997,0.9,0.3878,2.0,0.8,True,orthorhombic,mmm,61,11.7278,4.1045,0.2842
Ca8 Pd8 Si6,3,0.0,0.0,0.3636,0.0,0.0,0.0,0.2727,0.0,0.0,0.3636,0.3636,1.2,0.5288,0.7,0.2805,2.0,0.7925,True,monoclinic,2/m,15,20.2652,4.9928,0.5242
N1 Tb1,2,0.0,0.0,0.0,0.0,0.0,0.5,0.0,0.0,0.5,0.0,0.0,3.04,1.52,1.1,0.55,6.0,3.0,True,cubic,m-3m,225,15.1353,9.4864,1.0
Al1 Nb1 Ru2,3,0.0,0.0,0.0,0.0,0.0,0.0,0.0,0.0,0.0,0.75,3.5,0.6,0.2975,0.2,0.075,2.0,0.866,True,cubic,m-3m,225,14.9266,8.9561,1.0
Ag2 Sb2 Sr2,3,0.0,0.0,0.3333,0.0,0.0,0.0,0.3333,0.0,0.0,0.3333,-0.0,1.1,0.4927,0.55,0.2321,0.0,0.0,True,hexagonal,6/mmm,194,29.0078,6.0536,0.8392
Er2 O12 Rh2 Sr6,4,0.0,0.0,0.2727,0.5455,0.0,0.0909,0.0,0.0,0.0909,0.0909,0.0,2.49,1.1331,1.4,0.6312,6.0,1.9667,True,trigonal,-3m,167,14.5403,6.5305,1.0
B4 F28 Sn8,3,0.0,0.0,0.0,0.0,0.7,0.0,0.1,0.0,0.0,0.0,-1.2,2.02,0.9137,0.95,0.377,3.0,1.2,True,monoclinic,2/m,14,17.6139,3.5939,0.3812
Fe4 Li2 O8,3,0.0,0.1429,0.0,0.5714,0.0,0.0,0.0,0.0,0.0,0.2857,-0.4286,2.46,0.973,0.85,0.4044,2.0,0.9035,True,cubic,m-3m,227,10.7754,4.0205,1.0
C2 Mn2 Na6 O14 P2,5,0.0,0.2308,0.0,0.5385,0.0,0.0,0.0,0.0,0.0,0.0769,-1.2308,2.51,1.0578,1.2,0.5025,2.0,0.6343,True,monoclinic,2/m,11,12.483,2.8538,0.5784
Ba4 Cu6 Li2 O12,4,0.0,0.0833,0.1667,0.5,0.0,0.0,0.0,0.0,0.0,0.25,-0.0833,2.55,1.0727,1.55,0.5782,4.0,1.5184,True,orthorhombic,mmm,69,14.2954,5.5004,0.8641
Ca1 Se1,2,0.0,0.0,0.5,0.5,0.0,0.0,0.0,0.0,0.0,0.0,0.0,1.55,0.775,0.65,0.325,0.0,0.0,True,cubic,m-3m,225,26.5257,3.726,1.0
Al2 Ge2 La1,3,0.0,0.0,0.0,0.0,0.0,0.2,0.4,0.0,0.2,0.2,0.2,0.91,0.3356,0.7,0.28,5.0,1.8547,True,trigonal,-3m,164,22.8155,4.9222,0.6188
Li12 O16 Ta4,3,0.0,0.375,0.0,0.5,0.0,0.0,0.0,0.0,0.0,0.125,0.0,2.46,1.1758,0.85,0.425,4.0,1.3229,True,monoclinic,2/m,15,9.6771,5.7006,0.6468
La3 N6 V2,3,0.0,0.0,0.0,0.0,0.0,0.2727,0.0,0.0,0.2727,0.4545,0.0909,1.94,0.878,1.3,0.5638,6.0,2.5584,True,tetragonal,4/mmm,139,13.9294,6.531,0.3763
Mn8 Tm4,2,0.0,0.0,0.0,0.0,0.0,0.3333,0.0,0.0,0.3333,0.6667,2.3333,0.3,0.1414,0.35,0.165,4.0,1.8856,True,hexagonal,6/mmm,194,16.2388,9.5035,0.6615
Cr4 O8 Rb1,3,0.0,0.0769,0.0,0.6154,0.0,0.0,0.0,0.0,0.0,0.3077,-0.2308,2.62,0.9703,1.75,0.5362,3.0,1.0987,True,triclinic,1,1,11.6352,4.6267,0.4166
Ba2 Br2 H2,3,0.0,0.0,0.3333,0.0,0.3333,0.0,0.0,0.0,0.0,0.0,0.0,2.07,0.855,1.9,0.776,5.0,2.0548,True,tetragonal,4/mmm,129,26.1624,4.6172,0.6144
Br6 Pr2,2,0.0,0.0,0.0,0.0,0.75,0.25,0.0,0.0,0.25,0.0,0.0,1.83,0.7924,0.7,0.3031,4.0,1.7321,True,hexagonal,6/m,176,31.3977,5.0325,1.8122
Te2 Ti1,2,0.0,0.0,0.0,0.6667,0.0,0.0,0.6667,0.0,0.0,0.3333,0.0,0.56,0.264,0.0,0.0,1.0,0.4714,True,trigonal,-3m,164,28.1098,5.9677,0.5544
As16 Mg24,2,0.0,0.0,0.6,0.0,0.0,0.0,0.4,0.0,0.0,0.0,-0.0,0.87,0.4262,0.35,0.1715,1.0,0.4899,True,cubic,m-3,206,24.2722,3.0479,1.0
Fe4 O8 Si2,3,0.0,0.0,0.0,0.5714,0.0,0.0,0.1429,0.0,0.0,0.2857,-1.1429,1.61,0.7855,0.8,0.3586,2.0,0.8806,True,cubic,m-3m,227,10.3466,4.672,1.0
Cl18 W3,2,0.0,0.0,0.0,0.0,0.8571,0.0,0.0,0.0,0.0,0.1429,-0.2857,0.8,0.2799,0.35,0.1225,3.0,1.0498,True,trigonal,-3m,164,32.5829,2.8871,1.814
Mg20 Rh8,2,0.0,0.0,0.7143,0.0,0.0,0.0,0.0,0.0,0.0,0.2857,2.2857,0.97,0.4382,0.15,0.0678,2.0,0.9035,True,hexagonal,6/mmm,194,18.5492,4.1862,1.0566
Sm2,1,0.0,0.0,0.0,0.0,0.0,1.0,0.0,0.0,1.0,0.0,3.0,0.0,0.0,0.0,0.0,0.0,0.0,True,hexagonal,6/mmm,194,34.3365,7.2715,0.6294
Ca2 Cl4 H16 O8,4,0.0,0.0,0.0667,0.2667,0.1333,0.0,0.0,0.0,0.0,0.0,-1.0667,2.44,0.6968,1.55,0.4241,3.0,0.9286,True,monoclinic,2/m,14,13.295,1.5242,0.6814
Pr1 Rb1 Se2,3,0.0,0.25,0.0,0.5,0.0,0.25,0.0,0.0,0.25,0.0,0.0,1.73,0.7951,1.2,0.5068,4.0,1.6394,True,trigonal,-3m,166,33.899,4.7062,1.0
Ge1 Rh3 Y2,3,0.0,0.0,0.0,0.0,0.0,0.0,0.1667,0.0,0.0,0.8333,1.8333,1.06,0.4775,0.55,0.2267,1.0,0.3727,True,trigonal,-3m,166,18.165,8.5193,1.0
Nb8 O10,2,0.0,0.0,0.0,0.5556,0.0,0.0,0.0,0.0,0.0,0.4444,1.1111,1.84,0.9143,0.85,0.4224,3.0,1.4907,True,tetragonal,4/mmm,137,12.2748,6.7884,0.7198
F8 S12 Sn4 Sr8,4,0.0,0.0,0.25,0.0,0.25,0.0,0.0,0.0,0.0,0.0,-1.0,3.03,1.0881,1.5,0.5522,3.0,1.2247,True,orthorhombic,mmm,62,21.6568,4.1035,0.315
B16 La20 N36,3,0.0,0.0,0.0,0.0,0.0,0.2778,0.2222,0.0,0.2778,0.2778,0.0,1.94,0.8297,1.3,0.5602,6.0,2.6874,True,orthorhombic,mmm,57,13.3194,5.983,0.6098
Al9 Cl36 Dy3,3,0.0,0.0,0.0,0.0,0.75,0.0625,0.0,0.0,0.0625,0.0,0.0,1.94,0.7184,0.75,0.1952,5.0,1.2103,True,trigonal,32,151,33.8484,2.0509,0.6745
Br12 K8 Mn2,3,0.0,0.3636,0.0,0.0,0.5455,0.0,0.0,0.0,0.0,0.0909,0.0,2.14,1.0122,1.05,0.4929,0.0,0.0,True,trigonal,-3m,167,34.2056,3.0485,1.0
Al20 Fe4 Yb2,3,0.0,0.0,0.0,0.0,0.0,0.0769,0.0,0.0,0.0769,0.1538,2.8462,1.83,0.4458,0.5,0.1375,5.0,1.3368,True,orthorhombic,mmm,63,15.72,4.506,0.7538
Ba2 Dy2 Fe4 O10,4,0.0,0.0,0.1111,0.5556,0.0,0.1111,0.0,0.0,0.1111,0.2222,-0.1111,2.55,1.0286,1.55,0.5726,6.0,2.0608,True,orthorhombic,mmm,51,13.5604,6.6876,0.5016
In5 Rb1 S8,3,0.0,0.0714,0.0,0.0,0.0,0.0,0.0,0.0,0.0,0.0,0.0,1.76,0.5297,1.35,0.3904,2.0,0.9897,True,monoclinic,2/m,12,24.8649,4.3699,0.3986
Al8 Ni2 Tb2,3,0.0,0.0,0.0,0.0,0.0,0.1667,0.0,0.0,0.1667,0.1667,2.8333,1.91,0.6319,0.5,0.1826,5.0,1.8257,True,orthorhombic,mmm,63,17.3409,5.1956,0.5084
In4 Rh4 Yb4,3,0.0,0.0,0.0,0.0,0.0,0.3333,0.0,0.0,0.3333,0.3333,3.0,2.28,0.9785,0.4,0.1633,3.0,1.4142,True,orthorhombic,mmm,62,21.5315,10.0454,0.4915
Ge4 Na12 S14,3,0.0,0.4,0.0,0.0,0.0,0.0,0.1333,0.0,0.0,0.0,-1.0667,1.65,0.7685,0.8,0.3735,1.0,0.3399,True,monoclinic,2/m,15,23.7681,2.3645,0.459
Ni1 O9 P3,3,0.0,0.0,0.0,0.6923,0.0,0.0,0.0,0.0,0.0,0.0769,-1.9231,1.53,0.6129,0.75,0.2402,2.0,0.6249,True,trigonal,3,146,16.0447,2.3534,1.0
Co4 Mo4 P4,3,0.0,0.0,0.0,0.0,0.0,0.0,0.0,0.0,0.0,0.6667,1.0,0.31,0.1396,0.45,0.1929,2.0,0.8165,True,orthorhombic,mmm,62,12.2159,8.4209,0.5557
Al3 Er1,2,0.0,0.0,0.0,0.0,0.0,0.25,0.0,0.0,0.25,0.0,3.0,0.37,0.1602,0.5,0.2165,5.0,2.1651,True,cubic,m-3m,221,18.9669,5.4325,1.0
Bi4 Ni4 O12,3,0.0,0.0,0.0,0.6,0.0,0.0,0.0,0.0,0.0,0.2,-0.2,1.53,0.7234,1.0,0.4359,4.0,1.6,True,triclinic,-1,2,11.9942,8.7407,0.6838
Nd1 Rb1 Se2,3,0.0,0.25,0.0,0.5,0.0,0.25,0.0,0.0,0.25,0.0,0.0,1.73,0.7931,1.2,0.5068,4.0,1.6394,True,trigonal,-3m,166,33.3969,4.8184,1.0
Ba4 Ho8 Te16,3,0.0,0.0,0.1429,0.5714,0.0,0.2857,0.5714,0.0,0.2857,0.0,0.0,1.21,0.4978,0.75,0.2692,3.0,1.3093,True,orthorhombic,mmm,62,35.8796,6.4634,0.2751
Dy1 Pd1,2,0.0,0.0,0.0,0.0,0.0,0.5,0.0,0.0,0.5,0.5,2.5,0.98,0.49,0.35,0.175,3.0,1.5,True,cubic,m-3m,221,21.6652,10.3057,1.0
Ce20 Ge8 Ru4,3,0.0,0.0,0.0,0.0,0.0,0.625,0.25,0.0,0.625,0.125,1.25,1.08,0.4648,0.6,0.2828,4.0,1.7984,True,orthorhombic,mmm,62,25.2892,7.7721,0.6656
Sb2 Sr4,2,0.0,0.0,0.6667,0.0,0.0,0.0,0.3333,0.0,0.0,0.0,0.3333,1.1,0.5185,0.55,0.2593,0.0,0.0,True,tetragonal,4/mmm,139,38.1975,4.3038,0.5268
Ni2 O24 P8,3,0.0,0.0,0.0,0.7059,0.0,0.0,0.0,0.0,0.0,0.0588,-2.0,1.53,0.5982,0.75,0.2272,2.0,0.5882,True,monoclinic,m,9,15.0672,2.4284,1.1101
Al1 Au1,2,0.0,0.0,0.0,0.0,0.0,0.0,0.0,0.0,0.0,0.5,3.0,0.93,0.465,0.1,0.05,3.0,1.5,True,cubic,m-3m,221,16.7545,11.0978,1.0
Pd1 S6 Ta2,3,0.0,0.0,0.0,0.0,0.0,0.0,0.0,0.0,0.0,0.3333,0.0,1.08,0.4423,0.45,0.2047,3.0,1.2862,True,monoclinic,2/m,12,22.6246,5.3881,0.3526
Cd6 Sb6 Tl4,3,0.0,0.0,0.0,0.0,0.0,0.0,0.375,0.0,0.0,0.375,-0.125,0.43,0.1898,0.45,0.1785,1.0,0.433,True,monoclinic,2/m,12,30.8126,7.4861,0.4108
Mg2 Te2,2,0.0,0.0,0.5,0.5,0.0,0.0,0.5,0.0,0.0,0.0,0.0,0.79,0.395,0.1,0.05,2.0,1.0,True,hexagonal,6mm,186,34.5655,3.6488,0.614
Ir1 Mn1 Sb1,3,0.0,0.0,0.0,0.0,0.0,0.0,0.3333,0.0,0.0,0.6667,0.6667,0.65,0.2779,0.1,0.0408,2.0,0.8165,True,cubic,-43m,216,19.0643,10.7111,1.0
C1 Co2 Mn2,3,0.0,0.0,0.0,0.0,0.0,0.0,0.0,0.0,0.0,0.8,0.8,1.0,0.3652,0.7,0.2709,2.0,0.8,True,tetragonal,4/mmm,123,10.9456,7.2745,0.9947
Ni4 Sn4 Y4,3,0.0,0.0,0.0,0.0,0.0,0.0,0.0,0.0,0.0,0.6667,0.3333,0.74,0.3377,0.45,0.1929,1.0,0.4714,True,orthorhombic,mmm,62,20.5882,7.1597,0.5815
Cu2 Si2 Sr1,3,0.0,0.0,0.2,0.0,0.0,0.0,0.4,0.0,0.0,0.4,-0.4,0.95,0.38,0.9,0.3295,2.0,0.7483,True,tetragonal,4/mmm,139,17.4708,5.1493,0.7235
Cr4 H4 La4 O20,4,0.0,0.0,0.0,0.625,0.0,0.125,0.0,0.0,0.125,0.25,-0.625,2.34,0.9076,1.7,0.522,7.0,2.0879,True,monoclinic,2/m,14,13.4715,4.1895,0.36
Ca1 Cu2 P2,3,0.0,0.0,0.2,0.0,0.0,0.0,0.0,0.0,0.0,0.4,0.0,1.19,0.4377,0.8,0.295,1.0,0.4899,True,tetragonal,4/mmm,139,15.7818,4.8215,0.7137
Fe2 O6 Ti2,3,0.0,0.0,0.0,0.6,0.0,0.0,0.0,0.0,0.0,0.4,0.0,1.9,0.8646,0.8,0.3919,2.0,0.9798,True,trigonal,-3,148,10.8892,4.627,1.0
N1 Pt1,2,0.0,0.0,0.0,0.0,0.0,0.0,0.0,0.0,0.0,0.5,-0.5,0.76,0.38,0.7,0.35,4.0,2.0,True,cubic,m-3m,225,11.3364,15.3136,1.0
Li2 O3 Pr1,3,0.0,0.3333,0.0,0.5,0.0,0.1667,0.0,0.0,0.1667,0.0,-0.1667,2.46,1.206,1.25,0.5094,6.0,2.2361,True,orthorhombic,mmm,65,14.0313,3.9998,0.6763
Na3 O6 W4,3,0.0,0.2308,0.0,0.4615,0.0,0.0,0.0,0.0,0.0,0.3077,0.5385,2.51,0.9909,1.2,0.4976,4.0,1.7372,True,orthorhombic,mm2,44,17.3412,6.6317,1.0
Ca2 F12 Tb2,3,0.0,0.0,0.125,0.0,0.75,0.125,0.0,0.0,0.125,0.0,-0.125,3.98,1.5275,1.3,0.5522,6.0,2.0,True,tetragonal,4/m,84,14.4737,4.4886,0.6763
Ba5 Ho8 Mn4 O21,4,0.0,0.0,0.1316,0.5526,0.0,0.2105,0.0,0.0,0.2105,0.1053,-0.0,2.55,1.1227,1.55,0.617,6.0,2.4709,True,tetragonal,4/m,87,14.8496,7.5387,0.5617
Fe12 Mg6 O24,3,0.0,0.0,0.1429,0.5714,0.0,0.0,0.0,0.0,0.0,0.2857,-0.2857,2.13,0.897,0.9,0.4135,2.0,0.8806,True,monoclinic,m,8,11.0386,4.2979,0.3336
Nb16 O28 Sr2,3,0.0,0.0,0.0435,0.6087,0.0,0.0,0.0,0.0,0.0,0.3478,0.6087,2.49,0.942,1.4,0.4576,3.0,1.4641,True,orthorhombic,mmm,55,12.7663,5.9656,0.5789
Cl4 Cr2,2,0.0,0.0,0.0,0.0,0.6667,0.0,0.0,0.0,0.0,0.3333,0.3333,1.5,0.7071,0.4,0.1886,1.0,0.4714,True,orthorhombic,mmm,58,24.844,2.7382,0.5035
Ni2 Si2 Tm1,3,0.0,0.0,0.0,0.0,0.0,0.2,0.4,0.0,0.2,0.4,-0.2,0.66,0.262,0.65,0.2379,5.0,1.8547,True,tetragonal,4/mmm,139,14.669,7.754,0.7161
Er2 Tl2,2,0.0,0.0,0.0,0.0,0.0,0.5,0.0,0.0,0.5,0.0,2.0,0.38,0.19,0.15,0.075,2.0,1.0,True,tetragonal,4/mmm,123,26.7145,11.5504,0.8611
As2 Ca1 Cu4,3,0.0,0.0,0.1429,0.0,0.0,0.0,0.2857,0.0,0.0,0.5714,0.5714,1.18,0.3684,0.65,0.2008,0.0,0.0,True,trigonal,-3m,166,16.1534,6.5219,1.0
Ga4 Sr1,2,0.0,0.0,0.2,0.0,0.0,0.0,0.0,0.0,0.0,0.0,2.8,0.86,0.344,0.7,0.28,1.0,0.4,True,tetragonal,4/mmm,139,21.8413,5.573,0.7141
Ge8 Li4 Yb4,3,0.0,0.25,0.0,0.0,0.0,0.25,0.5,0.0,0.25,0.0,-1.0,2.01,0.8353,0.5,0.2046,6.0,2.1794,True,orthorhombic,mmm,62,20.6937,6.525,0.3691
S6,1,0.0,0.0,0.0,0.0,0.0,0.0,0.0,0.0,0.0,0.0,-2.0,0.0,0.0,0.0,0.0,0.0,0.0,True,trigonal,-3,148,31.5332,1.6885,1.0
B6 O18 Sc2 Sr6,4,0.0,0.0,0.1875,0.5625,0.0,0.0,0.1875,0.0,0.0,0.0625,0.0,2.49,1.0305,1.4,0.5508,3.0,1.2103,True,trigonal,-3,148,12.6376,3.9768,1.0
Ag6 Te4 Tl2,3,0.0,0.0,0.0,0.3333,0.0,0.0,0.3333,0.0,0.0,0.5,0.0,0.48,0.1601,0.5,0.1675,1.0,0.3727,True,orthorhombic,mmm,65,24.8715,8.7149,0.2477
Pb4 Rh2,2,0.0,0.0,0.0,0.0,0.0,0.0,0.0,0.0,0.0,0.3333,2.3333,0.05,0.0236,0.45,0.2121,1.0,0.4714,True,tetragonal,4/mmm,140,22.9821,12.459,1.0
Co2 Ge2 U1,3,0.2,0.0,0.0,0.0,0.0,0.0,0.4,0.0,0.2,0.4,0.4,0.63,0.2334,0.5,0.1855,5.0,2.0,True,tetragonal,4/mmm,139,15.6374,10.644,0.7251
Cu4 Dy2 O8,3,0.0,0.0,0.0,0.5714,0.0,0.1429,0.0,0.0,0.1429,0.2857,-0.1429,2.22,0.8991,1.15,0.4542,6.0,2.0603,True,monoclinic,2/m,15,11.1557,7.5189,0.9063
Al2 C4 Ti6,3,0.0,0.0,0.0,0.0,0.0,0.0,0.0,0.0,0.0,0.5,1.1667,1.01,0.4685,0.7,0.3168,2.0,0.8975,True,hexagonal,6/mmm,194,12.7993,4.2079,0.165
Al3 As3 O12,3,0.0,0.0,0.0,0.6667,0.0,0.0,0.1667,0.0,0.0,0.0,-1.3333,1.83,0.7467,0.65,0.2843,2.0,0.7638,True,trigonal,32,152,14.5697,3.1513,0.4484
Ir12 La12 O44,3,0.0,0.0,0.0,0.6471,0.0,0.1765,0.0,0.0,0.1765,0.3529,-0.2353,2.34,0.9157,1.35,0.5325,6.0,2.4622,True,cubic,m-3,201,12.9154,8.8438,1.0
Ba3 O9 Y4,3,0.0,0.0,0.1875,0.5625,0.0,0.0,0.0,0.0,0.0,0.25,0.0,2.55,1.1764,1.55,0.6794,4.0,1.7321,True,trigonal,3,146,17.6016,5.375,1.0
Ca6 O12 U2,3,0.1,0.0,0.3,0.6,0.0,0.0,0.0,0.0,0.1,0.0,0.0,2.44,1.1535,1.2,0.5819,7.0,2.1,True,trigonal,-3,148,15.6219,4.8286,1.0
Ti1,1,0.0,0.0,0.0,0.0,0.0,0.0,0.0,0.0,0.0,1.0,4.0,0.0,0.0,0.0,0.0,0.0,0.0,True,cubic,m-3m,225,17.3448,4.5826,1.0
Mn28 O48 Si4,3,0.0,0.0,0.0,0.6,0.0,0.0,0.05,0.0,0.0,0.35,-0.7,1.89,0.9074,0.8,0.3788,2.0,0.9421,True,tetragonal,4/mmm,142,10.9696,4.5764,0.8208