formula,numberOfSpecies,fracActinoid,fracAlkali,fracAlkaline,fracChalcogen,fracHalogen,fracLanthanoid,fracMetalloid,fracNobleGas,fracRareEarth,fracTransitionMetal,electronsPerAtom,electronegativityRange,electronegativityStd,radiiRange,radiiStd,rowRange,rowStd,ordered,crystalSystem,pointGroup,spaceGroupNumber,volumePerSite,density,c_a
In4 Pt4 Sr4,3,0.0,0.0,0.3333,0.0,0.0,0.0,0.0,0.0,0.0,0.3333,2.3333,1.33,0.5485,0.65,0.2718,1.0,0.4714,True,orthorhombic,mmm,62,25.1592,8.7457,0.5297
Lu10 Pd4 Sb2,3,0.0,0.0,0.0,0.0,0.0,0.625,0.125,0.0,0.625,0.25,2.0,0.93,0.4282,0.35,0.162,1.0,0.4841,True,tetragonal,4/mmm,140,24.1919,10.377,0.8769
O2 Zr6,2,0.0,0.0,0.0,0.25,0.0,0.0,0.0,0.0,0.0,0.75,2.5,2.11,0.9137,0.95,0.4114,3.0,1.299,True,hexagonal,622,182,18.2031,6.6062,1.0827
Ir1 Mn3 N1,3,0.0,0.0,0.0,0.0,0.0,0.0,0.0,0.0,0.0,0.8,1.2,1.49,0.5877,0.75,0.2956,4.0,1.2649,True,cubic,m-3m,221,11.9282,10.3305,1.0
Cl2 Sc2,2,0.0,0.0,0.0,0.0,0.5,0.0,0.0,0.0,0.0,0.5,1.0,1.8,0.9,0.6,0.3,1.0,0.5,True,trigonal,-3m,166,26.2106,2.5471,1.0
Br4 O10 Sb8,3,0.0,0.0,0.0,0.4545,0.1818,0.0,0.3636,0.0,0.0,0.0,-2.1818,1.39,0.627,0.85,0.3878,3.0,1.3727,True,monoclinic,2/m,14,22.0194,4.983,0.3799
Nb8 O48 P12,3,0.0,0.0,0.0,0.7059,0.0,0.0,0.0,0.0,0.0,0.1176,-1.3529,1.84,0.695,0.85,0.2901,3.0,0.9772,True,monoclinic,2/m,14,14.4647,3.1788,0.7157
Al1 Rh1,2,0.0,0.0,0.0,0.0,0.0,0.0,0.0,0.0,0.0,0.5,3.0,0.67,0.335,0.1,0.05,2.0,1.0,True,cubic,m-3m,221,13.591,7.9348,1.0
S4 Tl4,2,0.0,0.0,0.0,0.0,0.0,0.0,0.0,0.0,0.0,0.0,-0.5,0.96,0.48,0.9,0.45,3.0,1.5,True,tetragonal,4/mmm,140,27.8718,7.0435,1.0
B8 Os6 Sc2,3,0.0,0.0,0.0,0.0,0.0,0.0,0.5,0.0,0.0,0.5,3.375,0.84,0.2584,0.75,0.2781,4.0,1.854,True,orthorhombic,mmm,63,10.8209,12.6389,0.2999
Al4 Mo2 Yb1,3,0.0,0.0,0.0,0.0,0.0,0.1429,0.0,0.0,0.1429,0.2857,3.2857,2.16,0.6719,0.5,0.175,5.0,1.7496,True,tetragonal,4/mmm,139,17.4881,6.414,0.9744
Br4,1,0.0,0.0,0.0,0.0,1.0,0.0,0.0,0.0,0.0,0.0,-1.0,0.0,0.0,0.0,0.0,0.0,0.0,True,orthorhombic,mmm,64,37.5338,3.535,0.525
Cu1 In2 O4,3,0.0,0.0,0.0,0.5714,0.0,0.0,0.0,0.0,0.0,0.1429,0.0,1.66,0.8025,0.95,0.4415,3.0,1.3553,True,tetragonal,4/mmm,139,11.9071,7.1159,0.611
Al4 Sr2,2,0.0,0.0,0.3333,0.0,0.0,0.0,0.0,0.0,0.0,0.0,2.6667,0.66,0.3111,0.75,0.3536,2.0,0.9428,True,cubic,m-3m,227,23.7308,3.3024,1.0
Cu4 Sb4 Se8,3,0.0,0.0,0.0,0.5,0.0,0.0,0.25,0.0,0.0,0.25,-1.25,0.65,0.2924,0.3,0.1299,1.0,0.433,True,orthorhombic,mmm,62,24.3051,5.8624,0.2703
La1 Mn2 Si2,3,0.0,0.0,0.0,0.0,0.0,0.2,0.4,0.0,0.2,0.6,-0.2,0.8,0.295,0.85,0.3105,5.0,1.8547,True,tetragonal,4/mmm,139,17.1061,5.9205,0.6682
Rb4 S8 Sb4,3,0.0,0.25,0.0,0.0,0.0,0.0,0.25,0.0,0.0,0.0,-1.5,1.76,0.7189,1.35,0.5511,2.0,1.0,True,triclinic,1,1,32.1418,3.5048,0.5446
O16 Se4 Si4 Tb8,4,0.0,0.0,0.0,0.625,0.0,0.25,0.125,0.0,0.25,0.0,-1.0,3.44,1.4141,1.15,0.4736,6.0,2.4717,True,orthorhombic,mmm,57,14.5422,6.9782,0.5592
Sb20 Sr22,2,0.0,0.0,0.5238,0.0,0.0,0.0,0.4762,0.0,0.0,0.0,-0.381,1.1,0.5494,0.55,0.2747,0.0,0.0,True,tetragonal,4/mmm,139,34.9024,4.9421,0.9885
Pt7 Sb4 Sm3,3,0.0,0.0,0.0,0.0,0.0,0.2143,0.2857,0.0,0.2143,0.5,0.7857,1.11,0.4324,0.5,0.195,3.0,1.0595,True,monoclinic,2/m,12,21.0349,12.99,0.4978
La1 Sb1,2,0.0,0.0,0.0,0.0,0.0,0.5,0.5,0.0,0.5,0.5,0.0,0.95,0.475,0.5,0.25,3.0,1.5,True,cubic,m-3m,225,35.1367,6.1594,1.0
Nd4,1,0.0,0.0,0.0,0.0,0.0,1.0,0.0,0.0,1.0,0.0,3.0,0.0,0.0,0.0,0.0,0.0,0.0,True,hexagonal,6/mmm,194,35.4387,6.7587,0.3112
F8 O20 S8,3,0.0,0.0,0.0,0.5556,0.2222,0.0,0.0,0.0,0.0,0.0,-1.7778,1.4,0.4734,0.5,0.1826,1.0,0.4157,True,tetragonal,-42m,114,16.3567,2.0544,0.8064
O10 U5,2,0.3333,0.0,0.0,0.6667,0.0,0.0,0.0,0.0,0.3333,0.0,0.6667,2.06,0.9711,1.15,0.5421,7.0,3.2998,True,monoclinic,m,8,13.2838,11.2516,0.1998
F6 Li1 Rh1,3,0.0,0.125,0.0,0.0,0.75,0.0,0.0,0.0,0.0,0.125,-0.25,3.0,1.0682,0.95,0.3905,3.0,0.9922,True,trigonal,-3,148,13.2202,3.5144,1.0
As2 Fe4 O11,3,0.0,0.0,0.0,0.6471,0.0,0.0,0.1176,0.0,0.0,0.2353,-1.1765,1.61,0.7203,0.8,0.3496,2.0,0.9558,True,triclinic,-1,2,11.7694,4.5582,0.764
Tl3 Y1,2,0.0,0.0,0.0,0.0,0.0,0.0,0.0,0.0,0.0,0.25,1.5,0.4,0.1732,0.1,0.0433,1.0,0.433,True,cubic,m-3m,221,27.4191,10.6294,1.0
B6 Er2 Mo2,3,0.0,0.0,0.0,0.0,0.0,0.2,0.6,0.0,0.2,0.2,3.2,0.92,0.3352,0.9,0.3795,6.0,2.4,True,monoclinic,2/m,11,11.4205,8.597,0.4634
Cr8 Mg12 O48 Si12,4,0.0,0.0,0.15,0.6,0.0,0.0,0.15,0.0,0.0,0.1,-1.2,2.13,0.9069,0.9,0.3727,2.0,0.6708,True,cubic,m-3m,230,10.164,3.7017,1.0
Ba2 O10 Pd2 Pr4,4,0.0,0.0,0.1111,0.5556,0.0,0.2222,0.0,0.0,0.2222,0.1111,-0.0,2.55,1.0982,1.55,0.6284,6.0,2.5142,True,tetragonal,4/mmm,127,15.6991,7.1169,0.8736
As2 Cu2 K4,3,0.0,0.5,0.0,0.0,0.0,0.0,0.25,0.0,0.0,0.25,0.25,1.36,0.618,1.05,0.4802,0.0,0.0,True,orthorhombic,mmm,63,28.5427,3.1512,0.9371
Br4 Cu4 Te8,3,0.0,0.0,0.0,0.5,0.25,0.0,0.5,0.0,0.0,0.25,-0.75,1.06,0.4095,0.25,0.1031,1.0,0.5,True,monoclinic,2/m,14,31.6762,5.2245,0.4391
Al12 Mo1,2,0.0,0.0,0.0,0.0,0.0,0.0,0.0,0.0,0.0,0.0769,3.0769,0.55,0.1466,0.2,0.0533,2.0,0.5329,True,cubic,m-3,204,16.7765,3.1957,1.0
Na30 Pb8,2,0.0,0.7895,0.0,0.0,0.0,0.0,0.0,0.0,0.0,0.0,1.2105,1.4,0.5708,0.0,0.0,3.0,1.223,True,cubic,-43m,220,31.1803,3.2897,1.0
Ba1 Ir2 P2,3,0.0,0.0,0.2,0.0,0.0,0.0,0.0,0.0,0.0,0.4,0.4,1.31,0.522,1.15,0.4202,3.0,1.4697,True,tetragonal,4/mmm,139,20.3728,9.5153,0.5708
Ag2 Nd2 Sn2,3,0.0,0.0,0.0,0.0,0.0,0.3333,0.0,0.0,0.3333,0.3333,0.0,0.82,0.3797,0.4,0.165,3.0,1.4142,True,hexagonal,6mm,186,25.7693,7.965,0.6283
Al1 Ni2 V1,3,0.0,0.0,0.0,0.0,0.0,0.0,0.0,0.0,0.0,0.75,3.0,0.3,0.1452,0.1,0.0433,1.0,0.433,True,cubic,m-3m,225,12.1506,6.6729,1.0
Ga2 Ir1 Li1,3,0.0,0.25,0.0,0.0,0.0,0.0,0.0,0.0,0.0,0.25,2.5,1.22,0.4451,0.15,0.0612,4.0,1.4142,True,cubic,m-3m,225,14.1943,9.903,1.0
Cu2 In2 Se4,3,0.0,0.0,0.0,0.5,0.0,0.0,0.0,0.0,0.0,0.25,0.25,0.77,0.3575,0.4,0.1658,1.0,0.433,True,tetragonal,-42m,122,25.4932,5.4761,0.8144
K1 La1 O2,3,0.0,0.25,0.0,0.5,0.0,0.25,0.0,0.0,0.25,0.25,0.0,2.62,1.2439,1.6,0.7428,6.0,2.4495,True,trigonal,-3m,166,18.9917,4.5904,1.0
Sb2 Sn1 Te4,3,0.0,0.0,0.0,0.5714,0.0,0.0,0.8571,0.0,0.0,0.0,-2.5714,0.14,0.0484,0.05,0.0247,0.0,0.0,True,trigonal,-3m,166,33.6803,6.1462,1.0
C2 Co2 Tm2,3,0.0,0.0,0.0,0.0,0.0,0.3333,0.0,0.0,0.3333,0.3333,0.3333,1.3,0.5308,1.05,0.4327,6.0,2.4944,True,tetragonal,4/mmm,131,14.4751,9.1727,0.5377
Ba1 La1 Mn1 O6 Ta1,5,0.0,0.0,0.1,0.6,0.0,0.1,0.0,0.0,0.1,0.3,0.0,2.55,1.0821,1.55,0.5931,6.0,2.1541,True,cubic,-43m,216,14.0583,7.1829,1.0
O26 Si6 Sm10,3,0.0,0.0,0.0,0.619,0.0,0.2381,0.1429,0.0,0.2381,0.0,-1.0952,2.27,0.9937,1.25,0.5211,6.0,2.499,True,hexagonal,6/m,176,13.3292,6.1937,1.374
Cl4 Se8 Tl20,3,0.0,0.0,0.0,0.25,0.125,0.0,0.0,0.0,0.0,0.0,0.0,1.54,0.5762,0.9,0.3897,3.0,1.1659,True,tetragonal,4/mmm,130,32.047,7.8714,0.658
Cu2 Pr6 Se14 Sn2,4,0.0,0.0,0.0,0.5833,0.0,0.25,0.0,0.0,0.25,0.0833,-0.5833,1.42,0.5985,0.7,0.2939,4.0,1.7058,True,hexagonal,6,173,26.3363,6.0829,1.6824
Be4 Fe2 O20 Si4 Y4,5,0.0,0.0,0.1176,0.5882,0.0,0.0,0.1176,0.0,0.0,0.1765,-0.9412,2.22,0.9217,1.2,0.4127,3.0,1.0323,True,monoclinic,2/m,14,10.7161,4.2645,0.4773
Au1 Mn1,2,0.0,0.0,0.0,0.0,0.0,0.0,0.0,0.0,0.0,1.0,2.5,0.99,0.495,0.05,0.025,2.0,1.0,True,tetragonal,4/mmm,123,16.8273,12.4291,1.038
Mn4 P24 Ti2,3,0.0,0.0,0.0,0.0,0.0,0.0,0.0,0.0,0.0,0.2,-1.8667,0.65,0.2573,0.4,0.16,1.0,0.4,True,monoclinic,2/m,15,14.9544,3.9192,0.5446
Co14 Na8 O28,3,0.0,0.16,0.0,0.56,0.0,0.0,0.0,0.0,0.0,0.28,-0.4,2.51,0.9932,1.2,0.4757,2.0,0.8727,True,hexagonal,6/m,176,10.8563,4.4571,0.6737
Ir4 Sn4 Sr3,3,0.0,0.0,0.2727,0.0,0.0,0.0,0.0,0.0,0.0,0.3636,0.1818,1.25,0.5136,0.65,0.2706,1.0,0.481,True,cubic,-43m,217,24.8806,9.1408,1.0
K1 Sm1 Te2,3,0.0,0.25,0.0,0.5,0.0,0.25,0.5,0.0,0.25,0.0,0.0,1.28,0.5662,0.8,0.3361,4.0,1.5,True,trigonal,-3m,166,37.459,4.9279,1.0
Ir2 O12 Sr6 Zn2,4,0.0,0.0,0.2727,0.5455,0.0,0.0,0.0,0.0,0.0,0.1818,-0.0909,2.49,1.1004,1.4,0.6069,4.0,1.5535,True,trigonal,-3m,167,14.0582,6.6198,1.0
Lu1 Na1 O8 Pd6,4,0.0,0.0625,0.0,0.5,0.0,0.0625,0.0,0.0,0.0625,0.375,0.0,2.51,0.8312,1.2,0.4615,4.0,1.5398,True,cubic,m-3,200,12.301,8.1373,1.0
Mo4 O26 P6,3,0.0,0.0,0.0,0.7222,0.0,0.0,0.0,0.0,0.0,0.1111,-1.5,1.28,0.5653,0.85,0.2846,3.0,0.9574,True,triclinic,-1,2,15.0749,3.0157,0.5568
Nb2 Nd6 O14,3,0.0,0.0,0.0,0.6364,0.0,0.2727,0.0,0.0,0.2727,0.0909,0.0,2.3,1.0579,1.25,0.563,6.0,2.6442,True,orthorhombic,mmm,63,14.6713,6.5608,0.8626
As16 Ba16 H16 O64,4,0.0,0.0,0.1429,0.5714,0.0,0.0,0.1429,0.0,0.0,0.0,-1.4286,2.55,0.9246,1.9,0.5843,5.0,1.5779,True,orthorhombic,mmm,61,15.5534,4.2287,0.4402
B2 Nb2 Ni2,3,0.0,0.0,0.0,0.0,0.0,0.0,0.3333,0.0,0.0,0.6667,3.3333,0.44,0.1846,0.6,0.2625,3.0,1.2472,True,orthorhombic,mmm,63,11.3219,7.94,0.4472
Ho2 O8 Ta2,3,0.0,0.0,0.0,0.6667,0.0,0.1667,0.0,0.0,0.1667,0.1667,0.0,2.21,0.9813,1.15,0.4793,6.0,2.4267,True,monoclinic,2/m,15,12.4493,9.1119,0.7785
F20 Na8 Sn6,3,0.0,0.2353,0.0,0.0,0.5882,0.0,0.0,0.0,0.0,0.0,-1.0588,3.05,1.3248,1.3,0.5768,3.0,1.113,True,monoclinic,2/m,15,18.6031,3.3503,0.5004
Ca1 Ni5,2,0.0,0.0,0.1667,0.0,0.0,0.0,0.0,0.0,0.0,0.8333,2.0,0.91,0.3391,0.45,0.1677,0.0,0.0,True,hexagonal,6/mmm,191,13.6806,6.7476,1.2481
O14 Re2 Sm6,3,0.0,0.0,0.0,0.6364,0.0,0.2727,0.0,0.0,0.2727,0.0909,-0.0909,2.27,1.0221,1.25,0.5567,6.0,2.6968,True,orthorhombic,mmm,63,13.8899,8.1433,0.8678
B2 Ho10 Si6,3,0.0,0.0,0.0,0.0,0.0,0.5556,0.4444,0.0,0.5556,0.0,0.6667,0.81,0.3526,0.9,0.3613,6.0,2.6247,True,hexagonal,6/mmm,193,21.9267,7.7391,1.3499
Gd1 Na1 S2,3,0.0,0.25,0.0,0.0,0.0,0.25,0.0,0.0,0.25,0.0,0.0,1.65,0.7635,0.8,0.4,5.0,2.1651,True,trigonal,-3m,166,23.5439,4.3088,1.0
Mg4 Pd8,2,0.0,0.0,0.3333,0.0,0.0,0.0,0.0,0.0,0.0,0.6667,2.0,0.89,0.4196,0.1,0.0471,2.0,0.9428,True,orthorhombic,mmm,62,15.8232,8.2956,0.5118
Cu4 S3 Tl1,3,0.0,0.0,0.0,0.0,0.0,0.0,0.0,0.0,0.0,0.5,0.375,0.96,0.3672,0.9,0.2826,3.0,0.927,True,tetragonal,4/mmm,123,17.7353,6.4927,0.4121
B4 Hf6 Ir10,3,0.0,0.0,0.0,0.0,0.0,0.0,0.2,0.0,0.0,0.8,3.3,0.9,0.3961,0.7,0.2458,4.0,1.6,True,tetragonal,4/mmm,127,14.6237,17.2391,0.3656
Pt3 Te4,2,0.0,0.0,0.0,0.5714,0.0,0.0,0.5714,0.0,0.0,0.4286,-0.2857,0.18,0.0891,0.05,0.0247,1.0,0.4949,True,monoclinic,2/m,12,24.5948,10.5677,0.3281
S12 Ta4 Tl4,3,0.0,0.0,0.0,0.0,0.0,0.0,0.0,0.0,0.0,0.2,0.0,1.08,0.5011,0.9,0.36,3.0,1.4697,True,orthorhombic,mmm,62,24.4549,6.5393,0.2393
Co6 Sm3 Sn5,3,0.0,0.0,0.0,0.0,0.0,0.2143,0.0,0.0,0.2143,0.4286,0.0714,0.79,0.3083,0.5,0.1917,4.0,1.5203,True,orthorhombic,mmm,71,18.9089,8.7707,0.5272
Fe4 Li2 O32 P10,4,0.0,0.0417,0.0,0.6667,0.0,0.0,0.0,0.0,0.0,0.0833,-1.75,2.46,0.7393,0.85,0.287,2.0,0.6333,True,monoclinic,m,7,13.4725,2.7192,3.7117
Al1 Au2 Sc1,3,0.0,0.0,0.0,0.0,0.0,0.0,0.0,0.0,0.0,0.75,3.0,1.18,0.5349,0.35,0.1293,3.0,1.299,True,cubic,m-3m,225,18.033,10.7247,1.0
Ce4 Mg4 Si8,3,0.0,0.0,0.25,0.0,0.0,0.25,0.5,0.0,0.25,0.0,-0.75,0.78,0.349,0.75,0.313,5.0,2.1651,True,tetragonal,4/mmm,141,20.3421,4.5018,0.2232
Co3 Sn3,2,0.0,0.0,0.0,0.0,0.0,0.0,0.0,0.0,0.0,0.5,-1.0,0.08,0.04,0.1,0.05,1.0,0.5,True,hexagonal,6/mmm,191,17.2359,8.5572,1.2528
Pd8 Se2,2,0.0,0.0,0.0,0.2,0.0,0.0,0.0,0.0,0.0,0.8,1.2,0.35,0.14,0.25,0.1,1.0,0.4,True,tetragonal,-42m,114,16.2771,10.2963,0.9223
Li6 O24 P6 Ti4,4,0.0,0.15,0.0,0.6,0.0,0.0,0.0,0.0,0.0,0.1,-1.1,2.46,0.9725,0.85,0.3533,2.0,0.6538,True,trigonal,-3,148,11.9687,2.785,1.0
Er4 O14 Ru4,3,0.0,0.0,0.0,0.6364,0.0,0.1818,0.0,0.0,0.1818,0.1818,-0.1818,2.2,0.8766,1.15,0.4652,6.0,2.3461,True,cubic,m-3m,227,11.9334,8.2055,1.0
Bi1 Na1 O6 Ti2,4,0.0,0.1,0.0,0.6,0.0,0.0,0.0,0.0,0.0,0.2,0.0,2.51,0.9778,1.2,0.4771,4.0,1.3,True,trigonal,3,146,12.1466,5.7924,1.0
Er1 Pt1 Sb1,3,0.0,0.0,0.0,0.0,0.0,0.3333,0.3333,0.0,0.3333,0.3333,0.6667,1.04,0.446,0.4,0.17,3.0,1.2472,True,cubic,-43m,216,23.7565,11.2793,1.0
Cl8 F12 Ir2,3,0.0,0.0,0.0,0.0,0.9091,0.0,0.0,0.0,0.0,0.0909,-0.6364,1.78,0.5665,0.85,0.2991,4.0,1.1355,True,monoclinic,2/m,14,21.9497,3.0812,0.4787
H2 Nd1,2,0.0,0.0,0.0,0.0,0.0,0.3333,0.0,0.0,0.3333,0.0,0.3333,1.06,0.4997,1.6,0.7542,7.0,3.2998,True,cubic,m-3m,225,13.8481,5.846,1.0
Ce2 Ge2 Ti2,3,0.0,0.0,0.0,0.0,0.0,0.3333,0.3333,0.0,0.3333,0.3333,1.0,0.89,0.3635,0.6,0.255,4.0,1.8856,True,tetragonal,4/mmm,129,21.5784,6.6853,0.5178
Ni3 Pr3 Zn3,3,0.0,0.0,0.0,0.0,0.0,0.3333,0.0,0.0,0.3333,0.6667,2.3333,0.78,0.3243,0.5,0.2357,4.0,1.8856,True,hexagonal,-6m2,189,19.5853,7.4896,1.8549
In6 O12 Re1,3,0.0,0.0,0.0,0.6316,0.0,0.0,0.0,0.0,0.0,0.0526,-0.1053,1.66,0.7929,0.95,0.4465,4.0,1.5308,True,trigonal,-3,148,12.8616,7.2512,1.0
Cs1 H1 Mn1 O10 P3,5,0.0,0.0625,0.0,0.625,0.0,0.0,0.0,0.0,0.0,0.0625,-1.6875,2.65,0.8345,2.35,0.525,5.0,1.118,True,monoclinic,2,5,15.2082,3.0147,0.9591
Ag2 Ga2 O4,3,0.0,0.0,0.0,0.5,0.0,0.0,0.0,0.0,0.0,0.25,0.0,1.63,0.7861,1.0,0.438,3.0,1.299,True,hexagonal,6/mmm,194,12.5563,6.9294,0.2416
Ce2 Ni2 Sb4,3,0.0,0.0,0.0,0.0,0.0,0.25,0.5,0.0,0.25,0.25,-0.25,0.93,0.3867,0.5,0.192,4.0,1.5,True,tetragonal,4/mmm,129,22.9093,8.0154,0.4619
S8 Tl1 V5,3,0.0,0.0,0.0,0.0,0.0,0.0,0.0,0.0,0.0,0.3571,0.7143,0.96,0.471,0.9,0.2565,3.0,0.8207,True,monoclinic,2,5,16.9355,5.0119,0.365
Ce1 Li2 P2,3,0.0,0.4,0.0,0.0,0.0,0.2,0.0,0.0,0.2,0.0,-0.2,1.21,0.5722,0.85,0.3209,6.0,2.245,True,trigonal,-3m,164,19.8616,3.6108,0.6264
O16 Rb8 Se4,3,0.0,0.2857,0.0,0.7143,0.0,0.0,0.0,0.0,0.0,0.0,-1.1429,2.62,1.1435,1.75,0.7639,3.0,1.3553,True,orthorhombic,mmm,62,20.3641,3.6565,0.5718
Ag2 La6 Se14 Sn2,4,0.0,0.0,0.0,0.5833,0.0,0.25,0.0,0.0,0.25,0.3333,-0.6667,1.45,0.6099,0.8,0.3398,4.0,1.675,True,hexagonal,6,173,27.2581,6.0717,1.7258
Cs1 Fe2 Sb2,3,0.0,0.2,0.0,0.0,0.0,0.0,0.4,0.0,0.0,0.4,-0.2,1.26,0.4704,1.2,0.4705,2.0,0.7483,True,monoclinic,2/m,12,25.7734,6.2897,0.3801
C2 Cd2 O6,3,0.0,0.0,0.0,0.6,0.0,0.0,0.0,0.0,0.0,0.2,-1.6,1.75,0.7015,0.95,0.372,3.0,1.2,True,trigonal,-3m,167,12.0689,4.7446,1.0
Cd1 Ga2 Te4,3,0.0,0.0,0.0,0.5714,0.0,0.0,0.5714,0.0,0.0,0.1429,0.0,0.41,0.1675,0.25,0.0776,1.0,0.4518,True,tetragonal,-4,82,33.7657,5.3552,0.84
H12 N6 Ni1 O4,4,0.0,0.0,0.0,0.1739,0.0,0.0,0.0,0.0,0.0,0.0435,-1.5652,1.53,0.5262,1.1,0.2651,3.0,0.7118,True,monoclinic,2/m,12,9.2381,1.7102,0.9388
K2 Sb2 Sn2,3,0.0,0.3333,0.0,0.0,0.0,0.0,0.3333,0.0,0.0,0.0,-2.0,1.23,0.5598,0.75,0.3536,1.0,0.4714,True,hexagonal,6mm,186,37.9542,4.0771,0.3344
Pd3 Tl3 Y3,3,0.0,0.0,0.0,0.0,0.0,0.0,0.0,0.0,0.0,0.6667,2.0,0.98,0.4023,0.5,0.216,1.0,0.4714,True,hexagonal,-6m2,189,22.738,9.7302,2.0813
B2 C1 La1 Rh2,4,0.0,0.0,0.0,0.0,0.0,0.1667,0.3333,0.0,0.1667,0.5,1.8333,1.45,0.458,1.25,0.4279,6.0,2.2361,True,tetragonal,4/mmm,139,13.1611,7.956,0.6652
Br2 O24 P6 Sr10,4,0.0,0.0,0.2381,0.5714,0.0476,0.0,0.0,0.0,0.0,0.0,-1.1429,2.49,1.039,1.4,0.5747,3.0,1.2527,True,hexagonal,6/m,176,15.3182,4.1447,1.39
Cu2 Ga2 Se4,3,0.0,0.0,0.0,0.5,0.0,0.0,0.0,0.0,0.0,0.25,0.25,0.74,0.349,0.2,0.0893,0.0,0.0,True,tetragonal,-42m,122,22.5952,5.3499,0.8204
Ba4 Te16 Tm8,3,0.0,0.0,0.1429,0.5714,0.0,0.2857,0.5714,0.0,0.2857,0.0,0.0,1.21,0.4927,0.75,0.2692,3.0,1.3093,True,orthorhombic,mmm,62,35.339,6.616,0.2751
Bi2 K2 O4,3,0.0,0.25,0.0,0.5,0.0,0.0,0.0,0.0,0.0,0.0,0.0,2.62,1.0955,1.6,0.6837,4.0,1.6583,True,monoclinic,2/m,15,20.272,5.7355,0.8547
Fe4 Ge4 O12,3,0.0,0.0,0.0,0.6,0.0,0.0,0.2,0.0,0.0,0.2,-1.6,1.61,0.7468,0.8,0.3583,2.0,0.9798,True,monoclinic,2/m,15,11.8935,4.928,0.7764
Li1 Mn1 O2,3,0.0,0.25,0.0,0.5,0.0,0.0,0.0,0.0,0.0,0.25,-0.25,2.46,1.106,0.85,0.4129,2.0,0.866,True,monoclinic,m,8,10.4778,3.7195,0.6123
O16 P4 Pr4,3,0.0,0.0,0.0,0.6667,0.0,0.1667,0.0,0.0,0.1667,0.0,-1.3333,2.31,0.8932,1.25,0.4598,6.0,2.1922,True,monoclinic,2/m,14,12.8127,5.095,0.9155
In3 Ni2,2,0.0,0.0,0.0,0.0,0.0,0.0,0.0,0.0,0.0,0.4,2.6,0.13,0.0637,0.2,0.098,1.0,0.4899,True,trigonal,-3m,164,18.1839,8.435,0.8299
Co1 Li1 O7 P2,4,0.0,0.0909,0.0,0.6364,0.0,0.0,0.0,0.0,0.0,0.0909,-1.5455,2.46,0.8391,0.85,0.3135,2.0,0.6428,True,triclinic,1,1,10.6832,3.3887,0.8645
Co2 Na3 O6 Sb1,4,0.0,0.25,0.0,0.5,0.0,0.0,0.0833,0.0,0.0,0.1667,-0.6667,2.51,1.0653,1.2,0.5178,3.0,0.986,True,monoclinic,2/m,12,11.4823,4.8759,0.9485
As3 B3 Ba3 O15,4,0.0,0.0,0.125,0.625,0.0,0.0,0.25,0.0,0.0,0.0,-1.0,2.55,0.9122,1.55,0.5096,4.0,1.3919,True,trigonal,3,144,14.3848,4.373,1.0331
Ca1 Fe3 O12 Ti4,4,0.0,0.0,0.05,0.6,0.0,0.0,0.0,0.0,0.0,0.35,0.0,2.44,0.925,1.2,0.4247,2.0,0.9798,True,cubic,m-3,204,10.7529,4.5639,1.0
Ge2 Nd1 Rh2,3,0.0,0.0,0.0,0.0,0.0,0.2,0.4,0.0,0.2,0.4,0.2,1.14,0.4197,0.6,0.2245,4.0,1.4697,True,tetragonal,4/mmm,139,18.511,8.8868,0.6911
Bi2 Na2 O6,3,0.0,0.2,0.0,0.6,0.0,0.0,0.0,0.0,0.0,0.0,-0.4,2.51,1.0225,1.2,0.5426,4.0,1.5492,True,trigonal,-3,148,15.2063,6.1145,1.0
H16 N16 S16,3,0.0,0.0,0.0,0.0,0.0,0.0,0.0,0.0,0.0,0.0,-2.0,0.84,0.3434,0.75,0.3064,2.0,0.8165,True,orthorhombic,mmm,62,15.2491,1.7089,0.5523
In3 Mg6,2,0.0,0.0,0.6667,0.0,0.0,0.0,0.0,0.0,0.0,0.0,2.3333,0.47,0.2216,0.05,0.0236,2.0,0.9428,True,hexagonal,-6m2,189,23.3552,3.8732,2.4508
F28 Sn4 Y4,3,0.0,0.0,0.0,0.0,0.7778,0.0,0.0,0.0,0.0,0.1111,-0.8889,2.76,1.0088,1.3,0.4749,3.0,1.2472,True,monoclinic,2/m,14,15.2812,4.1124,0.5032
H16 K16 O64 S16,4,0.0,0.1429,0.0,0.5714,0.0,0.0,0.0,0.0,0.0,0.0,-1.4286,2.62,0.9226,1.95,0.592,3.0,0.8806,True,orthorhombic,mmm,61,14.7046,2.1967,0.4374
O24 Si12,2,0.0,0.0,0.0,0.6667,0.0,0.0,0.3333,0.0,0.0,0.0,-2.6667,1.54,0.726,0.5,0.2357,1.0,0.4714,True,triclinic,1,1,7.9262,4.1959,1.1912
O12 Sn4 Sr4,3,0.0,0.0,0.2,0.6,0.0,0.0,0.0,0.0,0.0,0.0,-1.6,2.49,1.0236,1.4,0.5779,3.0,1.4697,True,orthorhombic,mmm,62,13.7857,6.1269,0.7103
Ba1 C2 Mg1 O6,4,0.0,0.0,0.2,0.6,0.0,0.0,0.0,0.0,0.0,0.0,-1.6,2.55,0.9193,1.55,0.503,4.0,1.2042,True,trigonal,-3m,166,12.6779,3.689,1.0
Ca8 Co8 O56 V16,4,0.0,0.0,0.0909,0.6364,0.0,0.0,0.0,0.0,0.0,0.2727,0.0,2.44,0.9372,1.2,0.4312,2.0,0.9621,True,monoclinic,2/m,14,12.813,3.6864,0.4663
B1 Dy1 Pd3,3,0.0,0.0,0.0,0.0,0.0,0.2,0.2,0.0,0.2,0.6,2.4,0.98,0.3811,0.9,0.2888,6.0,1.8974,True,cubic,m-3m,221,16.1195,10.1484,1.0
K1 Nd1 Te2,3,0.0,0.25,0.0,0.5,0.0,0.25,0.5,0.0,0.25,0.0,0.0,1.28,0.5713,0.8,0.3361,4.0,1.5,True,trigonal,-3m,166,38.2783,4.756,1.0
F24 Ge10,2,0.0,0.0,0.0,0.0,0.7059,0.0,0.2941,0.0,0.0,0.0,-1.8824,1.97,0.8976,0.75,0.3417,2.0,0.9113,True,monoclinic,2/m,14,16.4761,3.5048,0.9025
K8 S40 Ta8,3,0.0,0.1429,0.0,0.0,0.0,0.0,0.0,0.0,0.0,0.1429,-0.5714,1.76,0.6667,1.2,0.4232,3.0,1.0498,True,monoclinic,2/m,14,24.8759,3.6273,0.4143
Al8 Fe4 Y1,3,0.0,0.0,0.0,0.0,0.0,0.0,0.0,0.0,0.0,0.3846,2.6923,0.61,0.1587,0.55,0.1496,2.0,0.6343,True,tetragonal,4/mmm,139,14.6266,4.6122,0.7562
Ti2,1,0.0,0.0,0.0,0.0,0.0,0.0,0.0,0.0,0.0,1.0,4.0,0.0,0.0,0.0,0.0,0.0,0.0,True,hexagonal,6/mmm,194,17.361,4.5784,0.6333
B2 Ni8 Tm2,3,0.0,0.0,0.0,0.0,0.0,0.1667,0.1667,0.0,0.1667,0.6667,2.3333,0.79,0.26,0.9,0.2609,6.0,1.7951,True,hexagonal,6/mmm,191,12.173,9.4242,0.7104
Cu1 Ti1,2,0.0,0.0,0.0,0.0,0.0,0.0,0.0,0.0,0.0,1.0,3.0,0.36,0.18,0.05,0.025,0.0,0.0,True,tetragonal,4/mmm,123,14.5764,6.3461,0.9862
Pd4 Sn4 Tb4,3,0.0,0.0,0.0,0.0,0.0,0.3333,0.0,0.0,0.3333,0.3333,0.3333,2.2,0.9854,0.35,0.1546,3.0,1.4142,True,orthorhombic,mmm,62,22.563,9.4216,0.5828
Mn2 N6 Sr6,3,0.0,0.0,0.4286,0.0,0.0,0.0,0.0,0.0,0.0,0.1429,-0.1429,2.09,0.9799,1.35,0.6255,3.0,1.3997,True,hexagonal,6/m,176,19.4937,4.3786,1.4679
Rh3 Ti1,2,0.0,0.0,0.0,0.0,0.0,0.0,0.0,0.0,0.0,1.0,3.25,0.74,0.3204,0.05,0.0217,1.0,0.433,True,cubic,m-3m,221,14.3967,10.2822,1.0
Na1 S2 Tm1,3,0.0,0.25,0.0,0.0,0.0,0.25,0.0,0.0,0.25,0.0,0.0,1.65,0.7535,0.8,0.3879,5.0,2.1651,True,trigonal,-3m,166,22.3334,4.7596,1.0
Al2 As2,2,0.0,0.0,0.0,0.0,0.0,0.0,0.5,0.0,0.0,0.0,0.0,0.57,0.285,0.1,0.05,1.0,0.5,True,hexagonal,6/mmm,194,18.5954,4.5499,0.6313
Np1 S1,2,0.5,0.0,0.0,0.0,0.0,0.0,0.0,0.0,0.5,0.0,1.5,1.22,0.61,0.75,0.375,6.0,3.0,True,cubic,m-3m,225,21.1006,10.5872,1.0
Pt2 Si2 Sm1,3,0.0,0.0,0.0,0.0,0.0,0.2,0.4,0.0,0.2,0.4,-0.2,1.11,0.4053,0.75,0.2739,5.0,1.9391,True,tetragonal,4/mmm,139,17.7682,11.153,0.73
Cu1 Dy1,2,0.0,0.0,0.0,0.0,0.0,0.5,0.0,0.0,0.5,0.5,2.5,0.68,0.34,0.4,0.2,4.0,2.0,True,cubic,m-3m,221,20.7954,9.025,1.0
Br12 N12 S16,3,0.0,0.0,0.0,0.0,0.3,0.0,0.0,0.0,0.0,0.0,-2.0,0.46,0.2081,0.5,0.1997,2.0,0.7746,True,monoclinic,2/m,14,28.0306,2.4288,0.3463
O12 U4,2,0.25,0.0,0.0,0.75,0.0,0.0,0.0,0.0,0.25,0.0,0.0,2.06,0.892,1.15,0.498,7.0,3.0311,True,orthorhombic,222,19,13.7597,8.6295,0.6935
B4 Cd6 O12,3,0.0,0.0,0.0,0.5455,0.0,0.0,0.1818,0.0,0.0,0.2727,0.0,1.75,0.81,0.95,0.4059,3.0,1.3361,True,orthorhombic,mmm,58,12.3176,5.5744,0.5277
Nb4 O14 Sr4,3,0.0,0.0,0.1818,0.6364,0.0,0.0,0.0,0.0,0.0,0.1818,0.0,2.49,1.0597,1.4,0.566,3.0,1.4431,True,orthorhombic,mm2,36,14.4928,4.9273,0.2896