formula,numberOfSpecies,fracActinoid,fracAlkali,fracAlkaline,fracChalcogen,fracHalogen,fracLanthanoid,fracMetalloid,fracNobleGas,fracRareEarth,fracTransitionMetal,electronsPerAtom,electronegativityRange,electronegativityStd,radiiRange,radiiStd,rowRange,rowStd,ordered,crystalSystem,pointGroup,spaceGroupNumber,volumePerSite,density,c_a
Cl6 O24 Pr2,3,0.0,0.0,0.0,0.75,0.1875,0.0625,0.0,0.0,0.0625,0.0,-1.5,2.31,0.5563,1.25,0.3228,6.0,1.4564,True,hexagonal,6/m,176,14.5124,3.1413,1.6082
H2 Y1,2,0.0,0.0,0.0,0.0,0.0,0.0,0.0,0.0,0.0,0.3333,0.3333,0.98,0.462,1.55,0.7307,4.0,1.8856,True,cubic,m-3m,225,11.8065,4.2626,1.0
Rb8 Sb8,2,0.0,0.5,0.0,0.0,0.0,0.0,0.5,0.0,0.0,0.0,-1.0,1.23,0.615,0.9,0.45,0.0,0.0,True,monoclinic,2/m,14,44.2476,3.8885,0.5654
Mn4 O14 Sc4,3,0.0,0.0,0.0,0.6364,0.0,0.0,0.0,0.0,0.0,0.3636,-0.3636,2.08,0.9566,1.0,0.4371,2.0,0.9621,True,cubic,m-3m,227,10.4212,4.5164,1.0
S8 U4,2,0.3333,0.0,0.0,0.0,0.0,0.0,0.0,0.0,0.3333,0.0,0.6667,1.2,0.5657,0.75,0.3536,6.0,2.8284,True,orthorhombic,mmm,62,20.0803,8.329,0.4794
C8 F6 H18 Si2,4,0.0,0.0,0.0,0.0,0.1765,0.0,0.0588,0.0,0.0,0.0,-1.8824,2.08,0.6706,0.85,0.2473,2.0,0.6056,True,monoclinic,2/m,11,11.3273,1.2262,0.6335
Br2 Ca2 H2,3,0.0,0.0,0.3333,0.0,0.3333,0.0,0.0,0.0,0.0,0.0,0.0,1.96,0.8069,1.55,0.6355,3.0,1.4142,True,tetragonal,4/mmm,129,20.5929,3.2521,0.4617
Pd8 S2,2,0.0,0.0,0.0,0.0,0.0,0.0,0.0,0.0,0.0,0.8,1.2,0.38,0.152,0.4,0.16,2.0,0.8,True,tetragonal,-42m,114,15.304,9.9334,0.9172
Co4 Dy4 Si4,3,0.0,0.0,0.0,0.0,0.0,0.3333,0.3333,0.0,0.3333,0.3333,0.3333,0.68,0.3159,0.65,0.2677,5.0,2.1602,True,orthorhombic,mmm,62,16.6119,8.314,0.6067
Ba32 P32 Ti8,3,0.0,0.0,0.4444,0.0,0.0,0.0,0.0,0.0,0.0,0.1111,0.0,1.3,0.6128,1.15,0.5449,3.0,1.4229,True,cubic,-43m,218,32.5085,4.0925,1.0
F6 K2 Na1 Sc1,4,0.0,0.3,0.0,0.0,0.6,0.0,0.0,0.0,0.0,0.1,0.0,3.16,1.4752,1.7,0.7291,2.0,0.9,True,cubic,m-3m,225,15.9442,2.7092,1.0
In2 Pd4 Tm4,3,0.0,0.0,0.0,0.0,0.0,0.4,0.0,0.0,0.4,0.4,2.6,0.95,0.4254,0.35,0.1568,3.0,1.4697,True,tetragonal,4/mmm,127,21.6295,10.2187,0.4759
Rb12 S16 Ta4,3,0.0,0.375,0.0,0.0,0.0,0.0,0.0,0.0,0.0,0.125,0.0,1.76,0.8218,1.35,0.6264,3.0,1.1659,True,orthorhombic,mmm,62,33.8866,3.4646,0.8592
C1 Eu1 Rh3,3,0.0,0.0,0.0,0.0,0.0,0.2,0.0,0.0,0.2,0.6,1.4,2.55,0.9448,1.15,0.3655,6.0,1.8974,True,cubic,m-3m,221,15.063,10.4218,1.0
C1 Dy3 Pb1,3,0.0,0.0,0.0,0.0,0.0,0.6,0.0,0.0,0.6,0.0,1.4,1.33,0.6017,1.1,0.4254,6.0,2.3324,True,cubic,m-3m,221,23.7546,9.8804,1.0
Au4 Cl4,2,0.0,0.0,0.0,0.0,0.5,0.0,0.0,0.0,0.0,0.5,1.0,0.62,0.31,0.35,0.175,3.0,1.5,True,tetragonal,4/mmm,141,28.2383,6.8337,1.0
B40 Na24 S72,3,0.0,0.1765,0.0,0.0,0.0,0.0,0.2941,0.0,0.0,0.0,0.0,1.65,0.6031,0.95,0.3319,1.0,0.4556,True,tetragonal,4/mmm,142,20.5102,1.9603,0.8705
H16 N4 O8 Se2,4,0.0,0.0,0.0,0.3333,0.0,0.0,0.0,0.0,0.0,0.0,-1.6,1.24,0.5432,0.9,0.2555,3.0,0.8,True,monoclinic,2/m,12,9.5122,2.0836,0.8444
Dy4 Tl2,2,0.0,0.0,0.0,0.0,0.0,0.6667,0.0,0.0,0.6667,0.0,2.3333,0.4,0.1886,0.15,0.0707,2.0,0.9428,True,hexagonal,6/mmm,194,28.4855,10.2867,0.8041
Cl2 Cu2 F20,3,0.0,0.0,0.0,0.0,0.9167,0.0,0.0,0.0,0.0,0.0833,-0.75,2.08,0.5985,0.85,0.2615,2.0,0.5951,True,monoclinic,2/m,14,14.7444,2.7122,0.5656
B2 Fe2 Lu1,3,0.0,0.0,0.0,0.0,0.0,0.2,0.4,0.0,0.2,0.4,2.6,0.77,0.2821,0.9,0.3507,4.0,1.4967,True,tetragonal,4/mmm,139,11.1123,9.2134,0.6644
O8 Ta2 Tb2,3,0.0,0.0,0.0,0.6667,0.0,0.1667,0.0,0.0,0.1667,0.1667,0.0,3.44,1.34,1.15,0.4793,6.0,2.4267,True,monoclinic,2/m,13,12.7058,8.7971,0.9342
Co4 Ti2,2,0.0,0.0,0.0,0.0,0.0,0.0,0.0,0.0,0.0,1.0,2.6667,0.34,0.1603,0.05,0.0236,0.0,0.0,True,cubic,m-3m,227,12.1946,7.5226,1.0
Ga6 Pu2,2,0.25,0.0,0.0,0.0,0.0,0.0,0.0,0.0,0.25,0.0,3.25,0.53,0.2295,0.45,0.1949,5.0,2.1651,True,hexagonal,6/mmm,194,18.6631,10.0801,1.328
Ho8 O28 Si8,3,0.0,0.0,0.0,0.6364,0.0,0.1818,0.1818,0.0,0.1818,0.0,-1.4545,2.21,0.9243,1.15,0.4426,6.0,2.26,True,orthorhombic,mm2,33,12.9464,5.8071,0.3692
Ce1 Ge2 Pd2,3,0.0,0.0,0.0,0.0,0.0,0.2,0.4,0.0,0.2,0.4,-0.2,1.08,0.4031,0.6,0.2205,4.0,1.4697,True,tetragonal,4/mmm,139,19.0895,8.668,0.721
Nd1 Se1,2,0.0,0.0,0.0,0.5,0.0,0.5,0.0,0.0,0.5,0.0,0.5,1.41,0.705,0.7,0.35,4.0,2.0,True,cubic,m-3m,225,26.7923,6.9168,1.0
Mo2 Rh2,2,0.0,0.0,0.0,0.0,0.0,0.0,0.0,0.0,0.0,1.0,3.5,0.12,0.06,0.1,0.05,0.0,0.0,True,orthorhombic,mmm,51,14.8885,11.0888,0.5697
Cd8 O48 Rb8 S12,4,0.0,0.1053,0.0,0.6316,0.0,0.0,0.0,0.0,0.0,0.1053,-1.2632,2.62,0.8982,1.75,0.5674,3.0,1.1956,True,cubic,23,198,15.6499,3.8195,1.0
Li4 Sb4 Sr4,3,0.0,0.3333,0.3333,0.0,0.0,0.0,0.3333,0.0,0.0,0.0,-0.0,1.1,0.5116,0.55,0.2593,3.0,1.4142,True,orthorhombic,mmm,62,27.7871,4.3091,0.5686
Fe26 Pr12 Si2,3,0.0,0.0,0.0,0.0,0.0,0.3,0.05,0.0,0.3,0.65,2.0,0.77,0.3234,0.75,0.2255,5.0,1.8782,True,tetragonal,4/mmm,140,18.7603,7.0789,0.6223
Ce8 O8 S6,3,0.0,0.0,0.0,0.3636,0.0,0.3636,0.0,0.0,0.3636,0.0,-0.1818,2.32,0.9982,1.25,0.5423,6.0,2.709,True,orthorhombic,mmm,55,18.175,5.9856,0.2674
C1 In1 Mn3,3,0.0,0.0,0.0,0.0,0.0,0.0,0.0,0.0,0.0,0.6,1.0,1.0,0.3874,0.85,0.3007,3.0,0.9798,True,cubic,m-3m,221,26.057,3.7171,1.0
O8 Ta2 Tm2,3,0.0,0.0,0.0,0.6667,0.0,0.1667,0.0,0.0,0.1667,0.1667,0.0,2.19,0.9761,1.15,0.4793,6.0,2.4267,True,monoclinic,2/m,13,12.2551,9.3466,0.9306
N20 Nb4 Sr20,3,0.0,0.0,0.4545,0.0,0.0,0.0,0.0,0.0,0.0,0.0909,0.0,2.09,1.0028,1.35,0.6446,3.0,1.4938,True,orthorhombic,mmm,57,19.5725,4.6357,0.3612
As6 Ge6,2,0.0,0.0,0.0,0.0,0.0,0.0,1.0,0.0,0.0,0.0,-3.5,0.17,0.085,0.1,0.05,0.0,0.0,True,monoclinic,2/m,12,25.457,4.8127,0.3871
Cu2 O20 P4 Ti4,4,0.0,0.0,0.0,0.6667,0.0,0.0,0.0,0.0,0.0,0.2,-1.0667,1.9,0.758,0.8,0.3163,2.0,0.8055,True,monoclinic,2/m,14,12.144,3.4751,0.9021
Gd2 Mg4,2,0.0,0.0,0.6667,0.0,0.0,0.3333,0.0,0.0,0.3333,0.0,2.3333,0.11,0.0519,0.3,0.1414,5.0,2.357,True,cubic,m-3m,227,25.7097,4.432,1.0
Bi4 Pd4 Te4,3,0.0,0.0,0.0,0.3333,0.0,0.0,0.3333,0.0,0.0,0.3333,1.0,0.18,0.0736,0.2,0.0943,1.0,0.4714,True,cubic,23,198,25.7045,9.5394,1.0
Ge6 Hf10,2,0.0,0.0,0.0,0.0,0.0,0.0,0.375,0.0,0.0,0.625,1.0,0.71,0.3437,0.3,0.1452,2.0,0.9682,True,hexagonal,6/mmm,193,19.2539,11.9704,1.4358
Al2 C6 Ta8,3,0.0,0.0,0.0,0.0,0.0,0.0,0.0,0.0,0.0,0.5,1.375,1.05,0.4989,0.75,0.3495,4.0,1.8998,True,hexagonal,6/mmm,194,12.9604,12.6011,0.1295
B1 Be2,2,0.0,0.0,0.6667,0.0,0.0,0.0,0.3333,0.0,0.0,0.0,2.3333,0.47,0.2216,0.2,0.0943,0.0,0.0,True,cubic,m-3m,225,7.9521,2.0071,1.0
Dy4 Ir4 Si4,3,0.0,0.0,0.0,0.0,0.0,0.3333,0.3333,0.0,0.3333,0.3333,0.6667,0.98,0.41,0.65,0.2677,5.0,2.0548,True,orthorhombic,mmm,62,18.0882,11.714,0.5727
Ga8 O14 Sr2,3,0.0,0.0,0.0833,0.5833,0.0,0.0,0.0,0.0,0.0,0.0,0.0,2.49,0.9157,1.4,0.4518,3.0,1.1149,True,monoclinic,2/m,15,14.7541,4.4879,0.699
Ag4 Ba4 O36 P12,4,0.0,0.0,0.0714,0.6429,0.0,0.0,0.0,0.0,0.0,0.0714,-1.7143,2.55,0.8068,1.55,0.4534,4.0,1.2206,True,orthorhombic,222,19,15.2939,3.7389,0.4869
Ba2 Mn1 O6 W1,4,0.0,0.0,0.2,0.6,0.0,0.0,0.0,0.0,0.0,0.2,-0.2,2.55,1.0598,1.55,0.6201,4.0,1.8,True,cubic,m-3m,225,14.5296,6.965,1.0
N6 Na3 O12 Rh1,4,0.0,0.1364,0.0,0.5455,0.0,0.0,0.0,0.0,0.0,0.0455,-1.6364,2.51,0.8425,1.2,0.4218,3.0,0.6863,True,trigonal,-3m,166,12.9946,2.6017,1.0
Ge2 Mn2 Ni2,3,0.0,0.0,0.0,0.0,0.0,0.0,0.3333,0.0,0.0,0.6667,0.0,0.46,0.1975,0.15,0.0624,0.0,0.0,True,hexagonal,6/mmm,194,12.7781,8.0688,0.7732
Ag2 In2 P4 S12,4,0.0,0.0,0.0,0.0,0.0,0.0,0.0,0.0,0.0,0.1,-1.4,0.8,0.2949,0.6,0.2303,2.0,0.8,True,trigonal,-3m,163,24.3777,3.2493,0.4356
Ca4 Sn4 Sr4,3,0.0,0.0,0.6667,0.0,0.0,0.0,0.0,0.0,0.0,0.0,0.0,1.01,0.4648,0.55,0.2273,1.0,0.4714,True,orthorhombic,mmm,62,35.3775,3.8553,0.5352
In4 Rb8 S10,3,0.0,0.3636,0.0,0.0,0.0,0.0,0.0,0.0,0.0,0.0,0.0,1.76,0.7911,1.35,0.6071,2.0,0.9959,True,triclinic,-1,2,33.359,3.3117,0.7041
Br2 Co1,2,0.0,0.0,0.0,0.0,0.6667,0.0,0.0,0.0,0.0,0.3333,0.0,1.08,0.5091,0.2,0.0943,0.0,0.0,True,trigonal,-3m,164,27.8565,4.3464,0.5412
Ni5 Tb1,2,0.0,0.0,0.0,0.0,0.0,0.1667,0.0,0.0,0.1667,0.8333,2.1667,1.91,0.7118,0.4,0.1491,4.0,1.4907,True,hexagonal,6/mmm,191,13.5153,9.2638,1.2345
B6 Ca1,2,0.0,0.0,0.1429,0.0,0.0,0.0,0.8571,0.0,0.0,0.0,2.8571,1.04,0.3639,0.95,0.3324,2.0,0.6999,True,cubic,m-3m,221,10.2112,2.438,1.0
Ga6 Sc10,2,0.0,0.0,0.0,0.0,0.0,0.0,0.0,0.0,0.0,0.625,3.0,0.45,0.2179,0.3,0.1452,0.0,0.0,True,hexagonal,6/mmm,193,21.2134,4.2461,1.3629
Ca8 O24 Si8,3,0.0,0.0,0.2,0.6,0.0,0.0,0.2,0.0,0.0,0.0,-1.6,2.44,1.0156,1.2,0.4716,2.0,0.8,True,,"l""",0,9.3952,4.1062,0.9858
Pt3 Zr1,2,0.0,0.0,0.0,0.0,0.0,0.0,0.0,0.0,0.0,1.0,2.5,0.95,0.4114,0.2,0.0866,1.0,0.433,True,cubic,m-3m,221,16.6852,16.831,1.0
Ho2 O8 P2,3,0.0,0.0,0.0,0.6667,0.0,0.1667,0.0,0.0,0.1667,0.0,-1.3333,2.21,0.8613,1.15,0.4247,6.0,2.1922,True,tetragonal,4/mmm,141,12.1103,5.9395,1.0
Si2 Sr4,2,0.0,0.0,0.6667,0.0,0.0,0.0,0.3333,0.0,0.0,0.0,0.0,0.95,0.4478,0.9,0.4243,2.0,0.9428,True,hexagonal,6/mmm,194,31.9437,3.5232,0.717
Hg4 Mo4 O14,3,0.0,0.0,0.0,0.6364,0.0,0.0,0.0,0.0,0.0,0.3636,-0.3636,1.44,0.656,0.9,0.4212,4.0,1.7104,True,monoclinic,2/m,13,16.149,6.5908,0.2749
O4 Tl3 V1,3,0.0,0.0,0.0,0.5,0.0,0.0,0.0,0.0,0.0,0.125,0.0,1.82,0.9088,1.3,0.6052,4.0,1.854,True,orthorhombic,mm2,44,21.1595,7.1423,0.9761
Al2 O6 Pr2,3,0.0,0.0,0.0,0.6,0.0,0.2,0.0,0.0,0.2,0.0,0.0,2.31,1.0254,1.25,0.5026,6.0,2.3324,True,trigonal,-3m,167,10.9939,6.5216,1.0
Fe12 Sc8 Si20,3,0.0,0.0,0.0,0.0,0.0,0.0,0.5,0.0,0.0,0.5,-0.8,0.54,0.2077,0.5,0.2022,1.0,0.5,True,tetragonal,4/mmm,128,13.6176,4.8517,0.5192
Cr4 O8 Si2,3,0.0,0.0,0.0,0.5714,0.0,0.0,0.1429,0.0,0.0,0.2857,-0.8571,1.78,0.8445,0.8,0.3586,2.0,0.8806,True,orthorhombic,mmm,70,11.7488,3.959,0.9038
Dy10 Ni4 Sb2,3,0.0,0.0,0.0,0.0,0.0,0.625,0.125,0.0,0.625,0.25,2.0,0.83,0.3589,0.4,0.1798,4.0,1.7984,True,tetragonal,4/mmm,140,24.2927,8.9857,0.8863
Al1 N1,2,0.0,0.0,0.0,0.0,0.0,0.0,0.0,0.0,0.0,0.0,0.0,1.43,0.715,0.6,0.3,1.0,0.5,True,cubic,m-3m,225,8.4214,4.041,1.0
Br12 Cr4 In4,3,0.0,0.0,0.0,0.0,0.6,0.0,0.0,0.0,0.0,0.2,0.6,1.3,0.6087,0.4,0.1661,1.0,0.4,True,monoclinic,2/m,14,30.8523,4.376,0.2835
F12 Hf2 K4,3,0.0,0.2222,0.0,0.0,0.6667,0.0,0.0,0.0,0.0,0.1111,0.0,3.16,1.4202,1.7,0.7213,4.0,1.3699,True,monoclinic,2/m,15,15.0117,4.5559,0.9542
Fe2 O6 Ti2,3,0.0,0.0,0.0,0.6,0.0,0.0,0.0,0.0,0.0,0.4,0.0,1.9,0.8646,0.8,0.3919,2.0,0.9798,True,trigonal,3m,161,10.8994,4.6226,1.0
P4 S16 Sr4 Tl4,4,0.0,0.0,0.1429,0.0,0.0,0.0,0.0,0.0,0.0,0.0,-1.1429,1.63,0.5931,1.0,0.43,3.0,1.1606,True,orthorhombic,mmm,62,26.9891,3.9661,0.5177
Nd4 Sc2 Si4,3,0.0,0.0,0.0,0.0,0.0,0.4,0.4,0.0,0.4,0.2,0.2,0.76,0.3459,0.75,0.3391,5.0,2.3152,True,tetragonal,4/mmm,127,24.1007,5.3689,0.5991
O6 Ru2 Sr2,3,0.0,0.0,0.2,0.6,0.0,0.0,0.0,0.0,0.0,0.2,-0.2,2.49,0.9955,1.4,0.56,3.0,1.4697,True,tetragonal,4/mmm,140,12.577,6.25,0.9874
O8 Rb4 Zn6,3,0.0,0.2222,0.0,0.4444,0.0,0.0,0.0,0.0,0.0,0.3333,0.0,2.62,1.0971,1.75,0.6781,3.0,1.2472,True,monoclinic,2/m,15,16.2233,4.9035,0.7015
Bi2 O11 Ti4,3,0.0,0.0,0.0,0.6471,0.0,0.0,0.0,0.0,0.0,0.2353,-0.0,1.9,0.8423,1.0,0.4179,4.0,1.392,True,monoclinic,2/m,12,12.5976,6.09,0.4866
La1 Te1,2,0.0,0.0,0.0,0.5,0.0,0.5,0.5,0.0,0.5,0.5,0.5,1.0,0.5,0.55,0.275,3.0,1.5,True,cubic,m-3m,225,34.0964,6.4896,1.0
O6 U1 V2,3,0.1111,0.0,0.0,0.6667,0.0,0.0,0.0,0.0,0.1111,0.2222,0.4444,2.06,0.8951,1.15,0.4304,7.0,2.1999,True,trigonal,-3m,162,11.8714,6.7748,1.0903
Bi2 Er10 Pt4,3,0.0,0.0,0.0,0.0,0.0,0.625,0.0,0.0,0.625,0.25,2.75,1.04,0.4676,0.4,0.1694,2.0,0.9682,True,tetragonal,4/mmm,140,25.7564,11.568,0.8896
Dy4 O14 Ti4,3,0.0,0.0,0.0,0.6364,0.0,0.1818,0.0,0.0,0.1818,0.1818,0.0,2.22,0.9956,1.15,0.4807,6.0,2.2709,True,cubic,m-3m,227,11.9535,6.7277,1.0
Co4 Ho4 O12,3,0.0,0.0,0.0,0.6,0.0,0.2,0.0,0.0,0.2,0.2,-0.2,2.21,0.9461,1.15,0.4823,6.0,2.3324,True,orthorhombic,mmm,62,10.9599,8.238,0.7115
S12 Tm8,2,0.0,0.0,0.0,0.0,0.0,0.4,0.0,0.0,0.4,0.0,0.0,1.33,0.6516,0.75,0.3674,5.0,2.4495,True,orthorhombic,mmm,62,20.7938,6.9326,0.3627
Er1 Mn2 Si2,3,0.0,0.0,0.0,0.0,0.0,0.2,0.4,0.0,0.2,0.4,-0.2,0.66,0.2493,0.65,0.2408,5.0,1.8547,True,tetragonal,4/mmm,139,15.4448,7.167,0.6657
Cd1 La1,2,0.0,0.0,0.0,0.0,0.0,0.5,0.0,0.0,0.5,1.0,2.5,0.59,0.295,0.4,0.2,3.0,1.5,True,cubic,m-3m,221,30.5355,6.8334,1.0
La4 Si4,2,0.0,0.0,0.0,0.0,0.0,0.5,0.5,0.0,0.5,0.5,-0.5,0.8,0.4,0.85,0.425,5.0,2.5,True,orthorhombic,mmm,63,25.5626,5.4238,0.6462
In3 Mg3 Y3,3,0.0,0.0,0.3333,0.0,0.0,0.0,0.0,0.0,0.0,0.3333,2.6667,0.56,0.2455,0.3,0.1312,2.0,0.9428,True,hexagonal,-6m2,189,25.7203,4.9073,1.6111
Li2 Mn2 O4,3,0.0,0.25,0.0,0.5,0.0,0.0,0.0,0.0,0.0,0.25,-0.25,2.46,1.106,0.85,0.4129,2.0,0.866,True,triclinic,1,1,9.3752,4.1569,1.1474
Mo5 Re24,2,0.0,0.0,0.0,0.0,0.0,0.0,0.0,0.0,0.0,1.0,4.0,0.26,0.0982,0.1,0.0378,1.0,0.3777,True,cubic,-43m,217,15.5093,18.2703,1.0
Li2 Ni2 O8 P2,4,0.0,0.1429,0.0,0.5714,0.0,0.0,0.0,0.0,0.0,0.1429,-1.1429,2.46,0.9283,0.85,0.3533,2.0,0.7284,True,orthorhombic,mmm,63,9.8693,3.8604,0.7946
N16 O48 Sn4,3,0.0,0.0,0.0,0.7059,0.0,0.0,0.0,0.0,0.0,0.0,-2.3529,1.48,0.3656,0.85,0.1982,3.0,0.7059,True,monoclinic,2/m,14,15.012,2.3862,0.5643
Cu2 Gd2 Ge2,3,0.0,0.0,0.0,0.0,0.0,0.3333,0.3333,0.0,0.3333,0.3333,0.3333,0.81,0.3587,0.55,0.2392,4.0,1.8856,True,hexagonal,6mm,186,19.703,8.2434,0.5693
Ga12 Ir6,2,0.0,0.0,0.0,0.0,0.0,0.0,0.0,0.0,0.0,0.3333,3.0,0.39,0.1838,0.05,0.0236,2.0,0.9428,True,orthorhombic,mmm,63,15.8191,11.605,0.3577
Al8 Cu4 Sm1,3,0.0,0.0,0.0,0.0,0.0,0.0769,0.0,0.0,0.0769,0.3077,2.6923,0.73,0.1942,0.6,0.1576,5.0,1.3234,True,tetragonal,4/mmm,139,15.4806,5.119,0.7638
Ba12 Ga8 N16,3,0.0,0.0,0.3333,0.0,0.0,0.0,0.0,0.0,0.0,0.0,0.0,2.15,0.9471,1.5,0.6547,4.0,1.7498,True,orthorhombic,mmm,52,18.9539,5.9132,0.5904
Ga4 Gd4 O12,3,0.0,0.0,0.0,0.6,0.0,0.2,0.0,0.0,0.2,0.0,0.0,2.24,0.9674,1.2,0.4915,6.0,2.3324,True,orthorhombic,mmm,62,11.6303,7.8519,0.6975
Be12 Mo1,2,0.0,0.0,0.9231,0.0,0.0,0.0,0.0,0.0,0.0,0.0769,2.1538,0.59,0.1572,0.4,0.1066,3.0,0.7994,True,tetragonal,4/mmm,139,8.4174,3.097,0.7602
Al2 Dy1 Si2,3,0.0,0.0,0.0,0.0,0.0,0.2,0.4,0.0,0.2,0.0,0.2,0.68,0.2502,0.65,0.2396,5.0,2.0,True,trigonal,-3m,164,20.0989,4.5049,0.6418
As1 Cu1 Se2,3,0.0,0.0,0.0,0.5,0.0,0.0,0.25,0.0,0.0,0.25,-1.25,0.65,0.2735,0.2,0.0866,0.0,0.0,True,trigonal,3m,160,24.4529,5.0317,1.0
I8 Pd4,2,0.0,0.0,0.0,0.0,0.6667,0.0,0.0,0.0,0.0,0.3333,0.0,0.46,0.2168,0.0,0.0,0.0,0.0,True,monoclinic,2/m,14,36.5406,5.4567,0.7896
Ag4 Er4 Se8,3,0.0,0.0,0.0,0.5,0.0,0.25,0.0,0.0,0.25,0.25,0.0,1.31,0.5407,0.6,0.2678,4.0,1.6394,True,orthorhombic,222,19,24.8834,7.2246,0.3089
P1 Pt1 Tb1,3,0.0,0.0,0.0,0.0,0.0,0.3333,0.0,0.0,0.3333,0.3333,0.6667,2.28,1.0542,0.75,0.3064,5.0,2.0548,True,hexagonal,-6m2,187,19.3489,11.0132,1.0615
Ba1 F6 Sn1,3,0.0,0.0,0.125,0.0,0.75,0.0,0.0,0.0,0.0,0.0,-1.0,3.09,1.1382,1.65,0.5895,4.0,1.536,True,trigonal,-3,148,15.7488,4.8769,1.0
Fe2 Sc4 Si4,3,0.0,0.0,0.0,0.0,0.0,0.0,0.4,0.0,0.0,0.6,0.0,0.54,0.2544,0.5,0.2245,1.0,0.4899,True,monoclinic,2/m,12,16.294,4.1157,0.4679
Fe4 O16 Ta4,3,0.0,0.0,0.0,0.6667,0.0,0.0,0.0,0.0,0.0,0.3333,-0.1667,1.94,0.8421,0.85,0.3892,4.0,1.5275,True,orthorhombic,mm2,33,11.3043,7.3641,1.6585
Co8 Ge12 Se12,3,0.0,0.0,0.0,0.375,0.0,0.0,0.375,0.0,0.0,0.25,-1.75,0.67,0.291,0.2,0.0781,0.0,0.0,True,trigonal,3,146,18.2759,6.504,1.0
C4 Ca20 O44 Si8,4,0.0,0.0,0.2632,0.5789,0.0,0.0,0.1053,0.0,0.0,0.0,-1.2632,2.44,1.0648,1.2,0.5159,2.0,0.8712,True,monoclinic,2/m,14,13.2445,2.9336,0.4744
Al3 Gd1 Pd2,3,0.0,0.0,0.0,0.0,0.0,0.1667,0.0,0.0,0.1667,0.3333,2.6667,1.0,0.3572,0.55,0.1945,5.0,1.8028,True,hexagonal,6/mmm,191,17.998,6.9356,1.2873
Cu2 Ge2 Yb2,3,0.0,0.0,0.0,0.0,0.0,0.3333,0.3333,0.0,0.3333,0.3333,0.3333,2.01,0.9227,0.5,0.216,4.0,1.8856,True,hexagonal,6mm,186,18.8561,9.0772,0.6098
Ag14 Ca4,2,0.0,0.0,0.2222,0.0,0.0,0.0,0.0,0.0,0.0,0.7778,1.2222,0.93,0.3866,0.2,0.0831,1.0,0.4157,True,orthorhombic,mmm,63,21.294,7.237,0.3904
Ba4 Cu6 Na2 O12,4,0.0,0.0833,0.1667,0.5,0.0,0.0,0.0,0.0,0.0,0.25,-0.0833,2.55,1.0784,1.55,0.6026,4.0,1.479,True,orthorhombic,mmm,69,14.9166,5.4202,0.8462
Br12 Ge4 Rb4,3,0.0,0.2,0.0,0.0,0.6,0.0,0.2,0.0,0.0,0.0,-1.2,2.14,0.8453,1.2,0.4716,1.0,0.4,True,orthorhombic,mm2,33,37.1393,3.5574,0.6824
Np2 Os4,2,0.3333,0.0,0.0,0.0,0.0,0.0,0.0,0.0,0.3333,0.6667,4.3333,0.84,0.396,0.45,0.2121,3.0,1.4142,True,cubic,m-3m,227,17.4487,19.5873,1.0
Ir4 Y2,2,0.0,0.0,0.0,0.0,0.0,0.0,0.0,0.0,0.0,1.0,3.0,0.98,0.462,0.45,0.2121,1.0,0.4714,True,cubic,m-3m,227,18.2456,14.3596,1.0
Ag6 Ba9,2,0.0,0.0,0.6,0.0,0.0,0.0,0.0,0.0,0.0,0.4,1.6,1.04,0.5095,0.55,0.2694,1.0,0.4899,True,trigonal,-3,148,42.2842,4.9302,1.0
B4 Bi4 O12,3,0.0,0.0,0.0,0.6,0.0,0.0,0.2,0.0,0.0,0.0,0.0,1.42,0.6908,1.0,0.3873,4.0,1.6,True,monoclinic,2/m,14,13.5451,6.5658,0.6041
Os4 Se8,2,0.0,0.0,0.0,0.6667,0.0,0.0,0.0,0.0,0.0,0.3333,0.0,0.35,0.165,0.15,0.0707,2.0,0.9428,True,cubic,m-3,205,18.1385,10.6241,1.0
Co1 Eu1 Ge3,3,0.0,0.0,0.0,0.0,0.0,0.2,0.6,0.0,0.2,0.2,-1.6,2.01,0.7926,0.6,0.2332,4.0,1.6,True,tetragonal,4mm,107,18.619,7.6488,0.7418
Al4 Ca6 F4 O26 Si6 Ti2,6,0.0,0.0,0.125,0.5417,0.0833,0.0,0.125,0.0,0.0,0.0417,-1.0,2.98,1.0131,1.3,0.4346,2.0,0.7626,True,triclinic,-1,2,11.3831,3.3571,0.7674
La6 O14 Os2,3,0.0,0.0,0.0,0.6364,0.0,0.2727,0.0,0.0,0.2727,0.3636,-0.0909,2.34,1.0341,1.35,0.5959,6.0,2.6968,True,orthorhombic,mmm,63,14.8769,7.2952,0.8767
Mg20 Pd8,2,0.0,0.0,0.7143,0.0,0.0,0.0,0.0,0.0,0.0,0.2857,2.0,0.89,0.4021,0.1,0.0452,2.0,0.9035,True,hexagonal,6/mmm,194,19.331,4.1031,1.0583
P8 S10,2,0.0,0.0,0.0,0.0,0.0,0.0,0.0,0.0,0.0,0.0,-2.4444,0.39,0.1938,0.0,0.0,0.0,0.0,True,monoclinic,2,4,30.7749,1.704,0.5986
Ga4 Na12 Se12,3,0.0,0.4286,0.0,0.4286,0.0,0.0,0.0,0.0,0.0,0.0,0.0,1.62,0.7503,0.65,0.3071,1.0,0.4949,True,monoclinic,2/m,14,26.4838,3.3641,0.5518
As8 Na16 Te16,3,0.0,0.4,0.0,0.4,0.0,0.0,0.6,0.0,0.0,0.0,-1.0,1.25,0.587,0.65,0.2538,2.0,0.8944,True,orthorhombic,222,19,30.7454,4.0626,0.6253
Ga4 K8 Li12 O16,4,0.0,0.5,0.0,0.4,0.0,0.0,0.0,0.0,0.0,0.0,-0.0,2.62,1.1931,1.6,0.6014,2.0,0.9165,True,monoclinic,2/m,14,12.8927,2.9976,0.5369
Al20 O38 Si4,3,0.0,0.0,0.0,0.6129,0.0,0.0,0.0645,0.0,0.0,0.0,-0.5161,1.83,0.8704,0.65,0.3064,1.0,0.4871,True,orthorhombic,mm2,36,11.1176,3.0353,0.3836
Li6 O32 P10 V4,4,0.0,0.1154,0.0,0.6154,0.0,0.0,0.0,0.0,0.0,0.0769,-1.3077,2.46,0.9003,0.85,0.3213,2.0,0.6166,True,monoclinic,2/m,13,12.6694,2.6897,3.6292
Ca6 Co4 O12,3,0.0,0.0,0.2727,0.5455,0.0,0.0,0.0,0.0,0.0,0.1818,-0.1818,2.44,1.0795,1.2,0.5292,2.0,0.9959,True,trigonal,-3m,167,11.4685,4.3977,1.0
H2 Mg4 O5,3,0.0,0.0,0.3636,0.4545,0.0,0.0,0.0,0.0,0.0,0.0,-0.3636,2.13,0.964,1.25,0.4973,2.0,0.7158,True,trigonal,-3m,164,8.9806,3.0128,0.2509
Ge6 Ni2 Sm2,3,0.0,0.0,0.0,0.0,0.0,0.2,0.6,0.0,0.2,0.2,-1.4,0.84,0.3283,0.6,0.2332,4.0,1.6,True,orthorhombic,mmm,65,18.7138,7.5774,0.373
Cu4 Rb4 S8 Ti2,4,0.0,0.2222,0.0,0.0,0.0,0.0,0.0,0.0,0.0,0.3333,0.2222,1.76,0.6918,1.35,0.5213,2.0,0.7857,True,tetragonal,4/mmm,132,23.5853,3.7092,0.4208
Bi4 Nb6 S12,3,0.0,0.0,0.0,0.0,0.0,0.0,0.0,0.0,0.0,0.2727,0.8182,0.98,0.4275,0.6,0.2587,3.0,1.2398,True,hexagonal,6/mmm,193,23.1603,5.7949,0.3309
Ga12 Li4 Te20,3,0.0,0.1111,0.0,0.5556,0.0,0.0,0.5556,0.0,0.0,0.0,0.0,1.12,0.3443,0.15,0.0533,3.0,0.9428,True,trigonal,3,146,31.11,5.0655,1.0
Fe7 H4 O24 P6,4,0.0,0.0,0.0,0.5854,0.0,0.0,0.0,0.0,0.0,0.1707,-1.3659,1.61,0.6973,1.15,0.3446,3.0,0.8801,True,triclinic,-1,2,11.0976,3.521,0.6966
H8 O8,2,0.0,0.0,0.0,0.5,0.0,0.0,0.0,0.0,0.0,0.0,-1.5,1.24,0.62,0.35,0.175,1.0,0.5,True,tetragonal,422,92,8.2731,1.7068,0.5379
Ba6 C60,2,0.0,0.0,0.0909,0.0,0.0,0.0,0.0,0.0,0.0,0.0,-3.4545,1.66,0.4772,1.45,0.4168,4.0,1.1499,True,cubic,m-3,204,10.9547,3.5475,1.0
Cl4 H18 N6 O8 Rb1 Ru1,6,0.0,0.0263,0.0,0.2105,0.1053,0.0,0.0,0.0,0.0,0.0263,-1.3684,2.62,0.61,2.1,0.4076,4.0,1.0041,True,trigonal,-3,148,11.2076,2.1777,1.0
Ba2 Cu3 Lu1 O6,4,0.0,0.0,0.1667,0.5,0.0,0.0833,0.0,0.0,0.0833,0.25,0.0833,2.55,1.0427,1.55,0.5982,4.0,1.6583,True,tetragonal,4/mmm,123,14.9684,6.8065,0.318
F4 H12 K4 O16 P4,5,0.0,0.1,0.0,0.4,0.1,0.0,0.0,0.0,0.0,0.0,-1.4,3.16,0.9144,1.95,0.55,3.0,0.8944,True,monoclinic,2/m,14,12.2265,2.12,0.7029
Cu4 O16 Te4,3,0.0,0.0,0.0,0.8333,0.0,0.0,0.1667,0.0,0.0,0.1667,-1.3333,1.54,0.6813,0.8,0.3656,3.0,1.2134,True,monoclinic,2/m,14,11.7059,6.0322,0.4558
Cu5 Zr1,2,0.0,0.0,0.0,0.0,0.0,0.0,0.0,0.0,0.0,1.0,2.3333,0.57,0.2124,0.2,0.0745,1.0,0.3727,True,cubic,-43m,216,13.6089,8.3167,1.0
C2 Mg1 Na2 O6,4,0.0,0.1818,0.0909,0.5455,0.0,0.0,0.0,0.0,0.0,0.0,-1.4545,2.51,1.0212,1.2,0.4858,1.0,0.4454,True,trigonal,-3,148,10.8977,2.6361,1.0