formula,numberOfSpecies,fracActinoid,fracAlkali,fracAlkaline,fracChalcogen,fracHalogen,fracLanthanoid,fracMetalloid,fracNobleGas,fracRareEarth,fracTransitionMetal,electronsPerAtom,electronegativityRange,electronegativityStd,radiiRange,radiiStd,rowRange,rowStd,ordered,crystalSystem,pointGroup,spaceGroupNumber,volumePerSite,density,c_a
Au2 Si2 Yb1,3,0.0,0.0,0.0,0.0,0.0,0.2,0.4,0.0,0.2,0.4,0.2,2.54,0.933,0.65,0.2379,5.0,1.9391,True,tetragonal,4/mmm,139,19.1013,10.8344,0.7427
Br2 H2 K4 O2,4,0.0,0.4,0.0,0.2,0.2,0.0,0.0,0.0,0.0,0.0,-0.4,2.62,1.0778,1.95,0.8041,3.0,1.2649,True,monoclinic,2/m,11,24.0848,2.4146,0.5024
Cu5 Dy1,2,0.0,0.0,0.0,0.0,0.0,0.1667,0.0,0.0,0.1667,0.8333,2.1667,0.68,0.2534,0.4,0.1491,4.0,1.4907,True,cubic,-43m,216,14.4154,9.2198,1.0
H2 Li8 N2,3,0.0,0.6667,0.0,0.0,0.0,0.0,0.0,0.0,0.0,0.0,0.0,2.06,0.8102,1.2,0.4853,1.0,0.3727,True,triclinic,-1,2,9.7905,1.2093,0.8086
Co4 Sb12,2,0.0,0.0,0.0,0.0,0.0,0.0,0.75,0.0,0.0,0.25,-1.75,0.17,0.0736,0.1,0.0433,1.0,0.433,True,cubic,m-3,204,23.6675,7.4408,1.0
Ge2 Pt2 Th1,3,0.2,0.0,0.0,0.0,0.0,0.0,0.4,0.0,0.2,0.4,0.0,0.98,0.3589,0.55,0.2049,5.0,1.833,True,tetragonal,4/mmm,139,19.5089,13.0652,0.7483
Au1 Sm1 Sn1,3,0.0,0.0,0.0,0.0,0.0,0.3333,0.0,0.0,0.3333,0.3333,0.6667,1.37,0.5615,0.5,0.216,3.0,1.2472,True,cubic,-43m,216,26.6384,9.6837,1.0
Ru2 Si2 Tb1,3,0.0,0.0,0.0,0.0,0.0,0.2,0.4,0.0,0.2,0.4,0.2,2.2,0.8309,0.65,0.2375,5.0,1.833,True,tetragonal,4/mmm,139,16.8586,8.2194,0.7431
K3 Na1 O8 Se2,4,0.0,0.2857,0.0,0.7143,0.0,0.0,0.0,0.0,0.0,0.0,-1.1429,2.62,1.1318,1.6,0.6614,2.0,0.9395,True,trigonal,-3m,164,16.9723,2.9785,0.78
I8 Te16,2,0.0,0.0,0.0,0.6667,0.3333,0.0,0.6667,0.0,0.0,0.0,-1.6667,0.56,0.264,0.0,0.0,0.0,0.0,True,orthorhombic,mmm,62,41.8319,5.0559,0.2439
H8 I2 P2,3,0.0,0.0,0.0,0.0,0.1667,0.0,0.0,0.0,0.0,0.0,-1.3333,0.47,0.1722,1.15,0.4625,4.0,1.5275,True,tetragonal,4/mmm,129,16.0307,2.7952,0.727
Ge6 Ta10,2,0.0,0.0,0.0,0.0,0.0,0.0,0.375,0.0,0.0,0.625,1.625,0.51,0.2469,0.2,0.0968,2.0,0.9682,True,hexagonal,6/mmm,193,16.9562,13.7429,1.4317
F8 K4 O2 Te2,4,0.0,0.25,0.0,0.25,0.5,0.0,0.125,0.0,0.0,0.0,-0.75,3.16,1.3346,1.7,0.7228,3.0,1.1659,True,orthorhombic,mmm,63,19.3288,3.1979,0.8213
Mo8 O56 P8 Rb8 Te4,5,0.0,0.0952,0.0,0.7143,0.0,0.0,0.0476,0.0,0.0,0.0952,-1.2381,2.62,0.8584,1.75,0.5489,3.0,1.2581,True,orthorhombic,mmm,60,16.0863,3.8162,0.7289
Au3 K3 Sb2,3,0.0,0.375,0.0,0.0,0.0,0.0,0.25,0.0,0.0,0.375,0.75,1.72,0.7618,0.85,0.394,2.0,0.866,True,trigonal,-3m,166,31.868,6.1988,1.0
F6 K1 Ru1,3,0.0,0.125,0.0,0.0,0.75,0.0,0.0,0.0,0.0,0.125,-0.25,3.16,1.1238,1.7,0.5862,3.0,1.111,True,trigonal,-3m,166,16.2922,3.2381,1.0
W1,1,0.0,0.0,0.0,0.0,0.0,0.0,0.0,0.0,0.0,1.0,4.0,0.0,0.0,0.0,0.0,0.0,0.0,True,cubic,m-3m,229,16.1914,18.854,1.0
Nd8 Re12 Si20,3,0.0,0.0,0.0,0.0,0.0,0.2,0.5,0.0,0.2,0.3,-0.2,0.76,0.304,0.75,0.2839,5.0,2.0224,True,tetragonal,4/mmm,128,17.4641,9.3897,0.5175
Al4 As12 Ca12,3,0.0,0.0,0.4286,0.0,0.0,0.0,0.4286,0.0,0.0,0.0,0.0,1.18,0.5463,0.65,0.311,1.0,0.3499,True,orthorhombic,mmm,62,25.0056,3.5289,0.3129
As2 Eu1 Fe2,3,0.0,0.0,0.0,0.0,0.0,0.2,0.4,0.0,0.2,0.4,-0.0,2.18,0.8171,0.7,0.2557,4.0,1.6,True,tetragonal,4/mmm,139,17.1211,8.0208,0.6551
Cd2 Ge4 O10,3,0.0,0.0,0.0,0.625,0.0,0.0,0.25,0.0,0.0,0.125,-2.0,1.75,0.7496,0.95,0.3733,3.0,1.1659,True,triclinic,-1,2,11.8189,5.9306,0.7737
In2 La4,2,0.0,0.0,0.0,0.0,0.0,0.6667,0.0,0.0,0.6667,0.6667,3.0,0.68,0.3206,0.4,0.1886,3.0,1.4142,True,hexagonal,6/mmm,194,32.9074,6.6041,0.7924
As8 Ba8 Ge4,3,0.0,0.0,0.4,0.0,0.0,0.0,0.6,0.0,0.0,0.0,-1.2,1.29,0.6074,1.0,0.475,2.0,0.9798,True,monoclinic,2/m,14,32.5695,5.0693,0.7908
Cs2 Sm2 Te6 Zn2,4,0.0,0.1667,0.0,0.5,0.0,0.1667,0.5,0.0,0.1667,0.1667,-0.0,1.31,0.5128,1.25,0.4506,4.0,1.2583,True,orthorhombic,mmm,63,38.7235,5.2278,0.3769
Ge32 Li28 Rb4,3,0.0,0.5,0.0,0.0,0.0,0.0,0.5,0.0,0.0,0.0,-1.5,1.19,0.5263,1.1,0.2621,3.0,1.0735,True,hexagonal,6mm,186,21.3602,3.4748,0.5874
In4 Mg10,2,0.0,0.0,0.7143,0.0,0.0,0.0,0.0,0.0,0.0,0.0,2.2857,0.47,0.2123,0.05,0.0226,2.0,0.9035,True,monoclinic,2/m,12,23.5309,3.5401,0.7199
Fe2 Li2 O24 P8,4,0.0,0.0556,0.0,0.6667,0.0,0.0,0.0,0.0,0.0,0.0556,-1.8333,2.46,0.7573,0.85,0.2804,2.0,0.5774,True,monoclinic,2/m,15,12.3177,2.836,0.7428
Bi12 Ho20,2,0.0,0.0,0.0,0.0,0.0,0.625,0.0,0.0,0.625,0.0,3.0,0.79,0.3825,0.15,0.0726,2.0,0.9682,True,orthorhombic,mmm,62,29.3441,10.2679,0.686
Mn2 Na12 Se8,3,0.0,0.5455,0.0,0.3636,0.0,0.0,0.0,0.0,0.0,0.0909,0.0,1.62,0.7567,0.65,0.3063,1.0,0.4979,True,hexagonal,6mm,186,25.4165,3.0215,1.295
Co1 Ga1 Mn2,3,0.0,0.0,0.0,0.0,0.0,0.0,0.0,0.0,0.0,0.75,2.25,0.33,0.1496,0.1,0.0415,0.0,0.0,True,cubic,-43m,216,12.7882,7.7433,1.0
P1 Pt1 Sm1,3,0.0,0.0,0.0,0.0,0.0,0.3333,0.0,0.0,0.3333,0.3333,0.6667,1.11,0.5034,0.85,0.3488,5.0,2.0548,True,hexagonal,-6m2,187,20.0615,10.3856,1.0466
Cr4 O12 W2,3,0.0,0.0,0.0,0.6667,0.0,0.0,0.0,0.0,0.0,0.3333,-0.2222,1.78,0.7536,0.8,0.3695,4.0,1.3699,True,tetragonal,4/mmm,136,10.9602,6.4614,0.5151
F28 H20 K8,3,0.0,0.1429,0.0,0.0,0.5,0.0,0.0,0.0,0.0,0.0,-0.7143,3.16,1.1731,1.95,0.6416,3.0,0.961,True,monoclinic,2/m,14,12.8018,2.0033,0.8296
In1 N1 Nd3,3,0.0,0.0,0.0,0.0,0.0,0.6,0.0,0.0,0.6,0.0,1.8,1.9,0.7388,1.2,0.4648,6.0,2.4,True,cubic,m-3m,221,25.6137,7.2811,1.0
Co6 Ga18 Ho4,3,0.0,0.0,0.0,0.0,0.0,0.1429,0.0,0.0,0.1429,0.2143,2.7857,0.65,0.211,0.45,0.1544,4.0,1.3997,True,orthorhombic,mmm,63,15.8005,8.5138,0.7838
Al6 Cl2 K8 O24 Si6,5,0.0,0.1739,0.0,0.5217,0.0435,0.0,0.1304,0.0,0.0,0.0,-1.0435,2.62,1.0583,1.6,0.5842,2.0,0.7581,True,cubic,-43m,218,17.8838,2.2165,1.0
Na8 O16 Si4 Zn4,4,0.0,0.25,0.0,0.5,0.0,0.0,0.125,0.0,0.0,0.125,-1.0,2.51,1.0875,1.2,0.5034,2.0,0.696,True,orthorhombic,mm2,33,13.1281,3.2171,0.4833
I10 Ta7 Te24,3,0.0,0.0,0.0,0.5854,0.2439,0.0,0.5854,0.0,0.0,0.1707,-0.561,1.16,0.3698,0.05,0.0188,1.0,0.3763,True,triclinic,-1,2,36.9599,6.1344,0.2504
Ge10 Nd4 Rh6,3,0.0,0.0,0.0,0.0,0.0,0.2,0.5,0.0,0.2,0.3,-0.5,1.14,0.4057,0.6,0.2291,4.0,1.5133,True,monoclinic,2/m,15,18.7798,8.492,0.715
Ag4 S8 Sb4,3,0.0,0.0,0.0,0.0,0.0,0.0,0.25,0.0,0.0,0.25,-1.5,0.65,0.298,0.6,0.2678,2.0,1.0,True,monoclinic,2/m,15,24.7637,4.9245,0.3513
La4 O12 Y4,3,0.0,0.0,0.0,0.6,0.0,0.2,0.0,0.0,0.2,0.4,0.0,2.34,1.1176,1.35,0.6264,6.0,2.4,True,orthorhombic,mmm,62,15.5972,5.8728,0.687
Si6 Ta10,2,0.0,0.0,0.0,0.0,0.0,0.0,0.375,0.0,0.0,0.625,1.625,0.4,0.1936,0.35,0.1694,3.0,1.4524,True,tetragonal,4/mmm,140,16.0649,12.7784,0.8677
N12 S10,2,0.0,0.0,0.0,0.0,0.0,0.0,0.0,0.0,0.0,0.0,-2.5455,0.46,0.229,0.35,0.1743,1.0,0.4979,True,monoclinic,2/m,15,19.9832,1.846,0.9704
F12 Gd2 K6,3,0.0,0.3,0.0,0.0,0.6,0.1,0.0,0.0,0.1,0.0,0.0,3.16,1.5051,1.7,0.7915,6.0,1.833,True,monoclinic,2/m,14,19.8668,3.2475,0.6989
Bi8 Cu8 Mn6,3,0.0,0.0,0.0,0.0,0.0,0.0,0.0,0.0,0.0,0.6364,2.3636,0.47,0.1896,0.25,0.1117,2.0,0.9621,True,cubic,m-3m,225,19.9259,9.5073,1.0
Br2 K4 O1,3,0.0,0.5714,0.0,0.1429,0.2857,0.0,0.0,0.0,0.0,0.0,0.0,2.62,1.1478,1.6,0.6335,2.0,0.6999,True,tetragonal,4/mmm,139,32.8108,2.4018,0.5715
Hg4 O12 Te4,3,0.0,0.0,0.0,0.8,0.0,0.0,0.2,0.0,0.0,0.2,-1.4,1.44,0.6817,0.9,0.4176,4.0,1.7436,True,triclinic,-1,2,16.7224,7.4711,0.8193
Pd2 Sn1 Yb1,3,0.0,0.0,0.0,0.0,0.0,0.25,0.0,0.0,0.25,0.5,0.75,2.2,0.9232,0.35,0.1458,3.0,1.299,True,cubic,m-3m,225,19.0647,10.9875,1.0
Ru2 Si2 Yb1,3,0.0,0.0,0.0,0.0,0.0,0.2,0.4,0.0,0.2,0.4,0.2,2.2,0.8309,0.65,0.2375,5.0,1.833,True,tetragonal,4/mmm,139,16.8431,8.5052,0.7565
B4 Ga32 Ir16,3,0.0,0.0,0.0,0.0,0.0,0.0,0.0769,0.0,0.0,0.3077,3.0,0.39,0.1786,0.5,0.1264,4.0,1.1513,True,tetragonal,4/mmm,142,15.2226,11.2228,0.7032
P1 Si1,2,0.0,0.0,0.0,0.0,0.0,0.0,0.5,0.0,0.0,0.0,-3.5,0.29,0.145,0.1,0.05,0.0,0.0,True,cubic,-43m,216,18.884,2.5966,1.0
Cd2 Tb1,2,0.0,0.0,0.0,0.0,0.0,0.3333,0.0,0.0,0.3333,0.6667,2.3333,1.69,0.7967,0.2,0.0943,3.0,1.4142,True,hexagonal,6/mmm,191,24.9158,8.5251,1.4419
N2 Se1 U2,3,0.4,0.0,0.0,0.2,0.0,0.0,0.0,0.0,0.4,0.0,0.8,1.66,0.7547,1.1,0.4923,7.0,3.1875,True,trigonal,-3m,164,17.5182,11.053,0.5602
Li5 Sn2,2,0.0,0.7143,0.0,0.0,0.0,0.0,0.0,0.0,0.0,0.0,-0.4286,0.98,0.4427,0.0,0.0,3.0,1.3553,True,trigonal,-3m,166,18.1543,3.5558,1.0
Ba4 Cu4,2,0.0,0.0,0.5,0.0,0.0,0.0,0.0,0.0,0.0,0.5,2.0,1.01,0.505,0.8,0.4,2.0,1.0,True,hexagonal,6/mmm,194,35.1359,4.7467,0.2752
La2 O8 Pd4,3,0.0,0.0,0.0,0.5714,0.0,0.1429,0.0,0.0,0.1429,0.4286,-0.1429,2.34,0.8645,1.35,0.5154,6.0,2.1853,True,tetragonal,4/m,88,13.3553,7.3845,0.8942
La2 S6 Yb2,3,0.0,0.0,0.0,0.0,0.0,0.4,0.0,0.0,0.4,0.2,0.0,2.58,1.0536,0.95,0.4212,5.0,2.4495,True,orthorhombic,mmm,63,25.1574,5.3879,0.4579
Ir2 Si2 Tb1,3,0.0,0.0,0.0,0.0,0.0,0.2,0.4,0.0,0.2,0.4,0.2,2.2,0.8309,0.65,0.2379,5.0,1.9391,True,tetragonal,4/mmm,139,16.7143,11.9125,0.7078
B1 Pu1,2,0.5,0.0,0.0,0.0,0.0,0.0,0.5,0.0,0.5,0.0,3.5,0.76,0.38,0.9,0.45,7.0,3.5,True,cubic,m-3m,225,17.1844,12.3113,1.0
Mo6 Sn12,2,0.0,0.0,0.0,0.0,0.0,0.0,0.0,0.0,0.0,0.3333,-1.3333,0.2,0.0943,0.0,0.0,0.0,0.0,True,hexagonal,622,180,21.2075,8.7007,0.3865
Li4 Mo4 O20 P4,4,0.0,0.125,0.0,0.625,0.0,0.0,0.0,0.0,0.0,0.125,-1.0,2.46,0.8761,0.85,0.3629,3.0,1.0,True,orthorhombic,mmm,62,11.7368,3.782,0.9942
O12 W4,2,0.0,0.0,0.0,0.75,0.0,0.0,0.0,0.0,0.0,0.25,-0.5,1.08,0.4677,0.75,0.3248,4.0,1.7321,True,tetragonal,4/mmm,130,14.3193,6.7213,0.6944
Al2 Cl8 Cu2,3,0.0,0.0,0.0,0.0,0.6667,0.0,0.0,0.0,0.0,0.1667,0.1667,1.55,0.6676,0.35,0.1443,1.0,0.3727,True,tetragonal,-42m,112,25.9396,2.4789,0.551
Mn4 Si4 Yb4,3,0.0,0.0,0.0,0.0,0.0,0.3333,0.3333,0.0,0.3333,0.3333,0.3333,1.9,0.8256,0.65,0.2656,5.0,2.1602,True,orthorhombic,mmm,62,18.1769,7.7975,0.5943
Pd1 Ti2,2,0.0,0.0,0.0,0.0,0.0,0.0,0.0,0.0,0.0,1.0,3.3333,0.66,0.3111,0.0,0.0,1.0,0.4714,True,tetragonal,4/mmm,139,16.2044,6.9052,0.5725
Er4 F20 K8,3,0.0,0.25,0.0,0.0,0.625,0.125,0.0,0.0,0.125,0.0,0.0,3.16,1.4671,1.7,0.7616,6.0,1.9843,True,orthorhombic,mm2,33,16.6435,4.2458,0.609
In8 Ti6,2,0.0,0.0,0.0,0.0,0.0,0.0,0.0,0.0,0.0,0.4286,3.4286,0.24,0.1188,0.15,0.0742,1.0,0.4949,True,tetragonal,4/mmm,127,21.3407,6.7014,0.2981
Ba2 Ge4,2,0.0,0.0,0.3333,0.0,0.0,0.0,0.6667,0.0,0.0,0.0,-2.0,1.12,0.528,0.9,0.4243,2.0,0.9428,True,tetragonal,4/mmm,141,28.9439,5.4045,0.5886
Co2 Li4 O24 P8,4,0.0,0.1053,0.0,0.6316,0.0,0.0,0.0,0.0,0.0,0.0526,-1.6842,2.46,0.8538,0.85,0.3064,2.0,0.5669,True,monoclinic,2/m,15,13.132,2.5869,1.1214
Co6 Li6 O24 P6,4,0.0,0.1429,0.0,0.5714,0.0,0.0,0.0,0.0,0.0,0.1429,-1.1429,2.46,0.932,0.85,0.3533,2.0,0.7284,True,trigonal,3m,159,10.938,3.4884,0.7847
Fe4 O8 Ti1,3,0.0,0.0,0.0,0.6154,0.0,0.0,0.0,0.0,0.0,0.3846,-0.3077,1.9,0.8147,0.8,0.3892,2.0,0.973,True,monoclinic,2/m,12,11.6201,4.3887,0.9797
Cu4 Pt8 S16,3,0.0,0.0,0.0,0.0,0.0,0.0,0.0,0.0,0.0,0.4286,-0.2857,0.68,0.2415,0.35,0.1732,3.0,1.3093,True,monoclinic,2/m,13,18.3207,7.5355,0.6345
S4 V4,2,0.0,0.0,0.0,0.0,0.0,0.0,0.0,0.0,0.0,0.5,1.5,0.95,0.475,0.35,0.175,1.0,0.5,True,orthorhombic,mmm,62,13.6044,5.0658,0.5522
Ca2 O10 Si2 Ti2,4,0.0,0.0,0.125,0.625,0.0,0.0,0.125,0.0,0.0,0.125,-1.0,2.44,0.9755,1.2,0.44,2.0,0.857,True,monoclinic,2/m,15,11.8954,3.4206,0.7726
Al5 Cu1 Se8,3,0.0,0.0,0.0,0.5714,0.0,0.0,0.0,0.0,0.0,0.0714,0.0714,0.94,0.4469,0.2,0.0627,1.0,0.4792,True,cubic,-43m,216,21.4225,4.5962,1.0
Hg2 P2 S6,3,0.0,0.0,0.0,0.0,0.0,0.0,0.0,0.0,0.0,0.2,-1.6,0.58,0.2451,0.5,0.2,3.0,1.2,True,triclinic,-1,2,25.6634,4.2415,0.8195
B2 K2 O6 Zr1,4,0.0,0.1818,0.0,0.5455,0.0,0.0,0.1818,0.0,0.0,0.0909,0.0,2.62,1.076,1.6,0.6166,3.0,1.0679,True,trigonal,-3m,166,13.5055,3.2084,1.0
Al2 N2 Zr4,3,0.0,0.0,0.0,0.0,0.0,0.0,0.0,0.0,0.0,0.5,2.0,1.71,0.7093,0.9,0.3674,3.0,1.299,True,hexagonal,6/mmm,194,16.6217,5.5804,0.2261
C8 Cs4 O24 Pr4,4,0.0,0.1,0.0,0.6,0.0,0.1,0.0,0.0,0.1,0.0,-1.6,2.65,0.9695,2.0,0.6627,6.0,2.0494,True,triclinic,-1,2,15.6847,4.1695,0.9641
As8 Rb8 Se16,3,0.0,0.25,0.0,0.5,0.0,0.0,0.25,0.0,0.0,0.0,-1.5,1.73,0.7119,1.2,0.5196,1.0,0.433,True,monoclinic,2/m,15,36.1011,3.6603,0.7479
Dy3,1,0.0,0.0,0.0,0.0,0.0,1.0,0.0,0.0,1.0,0.0,3.0,0.0,0.0,0.0,0.0,0.0,0.0,True,trigonal,-3m,166,31.5745,8.5461,1.0
B32 Cl32 P16,3,0.0,0.0,0.0,0.0,0.4,0.0,0.4,0.0,0.0,0.0,0.2,1.12,0.527,0.15,0.0735,1.0,0.4899,True,orthorhombic,mmm,60,26.8216,1.5292,0.2622
O40 S8 Sn16,3,0.0,0.0,0.0,0.625,0.0,0.0,0.0,0.0,0.0,0.0,-2.5,1.48,0.6419,0.85,0.3629,3.0,1.2686,True,tetragonal,-42m,114,17.963,4.0383,0.8053
Al12 Li12 O24,3,0.0,0.25,0.0,0.5,0.0,0.0,0.0,0.0,0.0,0.0,0.0,2.46,1.0954,0.85,0.3816,1.0,0.433,True,monoclinic,2,5,8.0205,3.412,0.1291
Al2 Si2 Te6,3,0.0,0.0,0.0,0.6,0.0,0.0,0.8,0.0,0.0,0.0,-1.4,0.49,0.1923,0.3,0.12,2.0,0.9798,True,trigonal,-3,147,31.8003,4.5729,0.8996
C2 Fe4,2,0.0,0.0,0.0,0.0,0.0,0.0,0.0,0.0,0.0,0.6667,0.0,0.72,0.3394,0.7,0.33,2.0,0.9428,True,orthorhombic,mmm,58,9.4971,7.2096,0.599
Be26 Sr2,2,0.0,0.0,1.0,0.0,0.0,0.0,0.0,0.0,0.0,0.0,2.0,0.62,0.1597,0.95,0.2447,3.0,0.7726,True,cubic,m-3m,226,10.0199,2.424,1.0
Fe4 Nb4 O16,3,0.0,0.0,0.0,0.6667,0.0,0.0,0.0,0.0,0.0,0.3333,-0.1667,1.84,0.8159,0.85,0.3892,3.0,1.2134,True,orthorhombic,mm2,33,11.4177,5.1569,1.6663
Co6 Ga2 Y6,3,0.0,0.0,0.0,0.0,0.0,0.0,0.0,0.0,0.0,0.8571,2.5714,0.66,0.3188,0.5,0.2295,1.0,0.4949,True,orthorhombic,mmm,63,18.9483,6.4254,0.3202
As2 I6,2,0.0,0.0,0.0,0.0,0.75,0.0,0.25,0.0,0.0,0.0,-1.5,0.48,0.2078,0.25,0.1083,1.0,0.433,True,trigonal,-3,148,44.5739,4.2435,1.0
Rb1 S2 Sn1,3,0.0,0.25,0.0,0.0,0.0,0.0,0.0,0.0,0.0,0.0,-1.75,1.76,0.7187,1.35,0.5511,2.0,1.0,True,trigonal,3m,160,27.8038,4.0061,1.0
Cr1 O1,2,0.0,0.0,0.0,0.5,0.0,0.0,0.0,0.0,0.0,0.5,0.5,1.78,0.89,0.8,0.4,2.0,1.0,True,cubic,m-3m,225,10.9479,5.1567,1.0
Al6 Zr10,2,0.0,0.0,0.0,0.0,0.0,0.0,0.0,0.0,0.0,0.625,3.625,0.28,0.1356,0.3,0.1452,2.0,0.9682,True,tetragonal,4/mmm,140,20.7801,5.3646,0.6502
Ca8 S2 Sb4,3,0.0,0.0,0.5714,0.0,0.0,0.0,0.2857,0.0,0.0,0.0,0.0,1.58,0.6287,0.8,0.2837,2.0,0.6389,True,tetragonal,-42m,122,28.6688,3.6068,1.0
O8 Pb2 Sr4,3,0.0,0.0,0.2857,0.5714,0.0,0.0,0.0,0.0,0.0,0.0,-0.2857,2.49,1.0911,1.4,0.6627,4.0,1.6782,True,orthorhombic,mmm,55,16.2324,6.5242,0.3475
B2 Ta1,2,0.0,0.0,0.0,0.0,0.0,0.0,0.6667,0.0,0.0,0.3333,3.6667,0.54,0.2546,0.6,0.2828,4.0,1.8856,True,hexagonal,6/mmm,191,9.2531,12.1175,0.9264
Ir1 N6 O12 Tl3,4,0.0,0.0,0.0,0.5455,0.0,0.0,0.0,0.0,0.0,0.0455,-1.6364,1.82,0.6278,1.3,0.454,4.0,1.5428,True,cubic,m-3m,225,14.1708,5.76,1.0
Cl4 O14,2,0.0,0.0,0.0,0.7778,0.2222,0.0,0.0,0.0,0.0,0.0,-1.7778,0.28,0.1164,0.4,0.1663,1.0,0.4157,True,monoclinic,2/m,15,16.5939,2.0336,0.531
O16 P4 Sm4,3,0.0,0.0,0.0,0.6667,0.0,0.1667,0.0,0.0,0.1667,0.0,-1.3333,2.27,0.8804,1.25,0.4598,6.0,2.1922,True,monoclinic,2/m,14,12.2283,5.5524,0.9191
Hf1,1,0.0,0.0,0.0,0.0,0.0,0.0,0.0,0.0,0.0,1.0,4.0,0.0,0.0,0.0,0.0,0.0,0.0,True,cubic,m-3m,225,22.501,13.1723,1.0
Cl10 Sc7,2,0.0,0.0,0.0,0.0,0.5882,0.0,0.0,0.0,0.0,0.4118,0.6471,1.8,0.8859,0.6,0.2953,1.0,0.4922,True,monoclinic,2/m,12,26.201,2.4949,0.2809
Au4 Cd4 Yb4,3,0.0,0.0,0.0,0.0,0.0,0.3333,0.0,0.0,0.3333,0.6667,2.6667,2.54,1.0557,0.4,0.1633,3.0,1.2472,True,orthorhombic,mmm,62,23.6288,11.3008,0.5018
Co6 O24 P6,3,0.0,0.0,0.0,0.6667,0.0,0.0,0.0,0.0,0.0,0.1667,-1.5,1.56,0.6683,0.75,0.2893,2.0,0.7638,True,triclinic,1,1,12.4923,3.4096,0.7932
O6 Pb2 Rb4,3,0.0,0.3333,0.0,0.5,0.0,0.0,0.0,0.0,0.0,0.0,-0.3333,2.62,1.1719,1.75,0.8045,4.0,1.6997,True,orthorhombic,mm2,36,21.421,5.5056,0.9156
F14 Sm2 Zr2,3,0.0,0.0,0.0,0.0,0.7778,0.1111,0.0,0.0,0.1111,0.1111,-0.0,2.81,1.1356,1.35,0.5039,6.0,2.0,True,monoclinic,2,4,16.8596,4.0992,0.7003
Li2 O10 V4,3,0.0,0.125,0.0,0.625,0.0,0.0,0.0,0.0,0.0,0.25,0.125,2.46,0.9989,0.85,0.3803,2.0,0.866,True,orthorhombic,mmm,63,13.1353,2.9838,0.3205
Ba2 La1 O6 Re1,4,0.0,0.0,0.2,0.6,0.0,0.1,0.0,0.0,0.1,0.2,-0.1,2.55,1.1308,1.55,0.6698,6.0,2.2716,True,cubic,m-3m,225,16.4043,7.0429,1.0
Be4 O4,2,0.0,0.0,0.5,0.5,0.0,0.0,0.0,0.0,0.0,0.0,0.0,1.87,0.935,0.45,0.225,0.0,0.0,True,tetragonal,4/mmm,136,7.2747,2.8546,0.5819
Ba6 Cr4 S12,3,0.0,0.0,0.2727,0.0,0.0,0.0,0.0,0.0,0.0,0.1818,0.0,1.69,0.7336,1.15,0.4904,3.0,1.2792,True,trigonal,-3m,167,24.1831,4.4218,1.0
Ba2 O24 Se2 Si6 Sm8,5,0.0,0.0,0.0476,0.619,0.0,0.1905,0.1429,0.0,0.1905,0.0,-1.1429,2.55,1.0007,1.55,0.5426,6.0,2.3416,True,hexagonal,6,173,14.5097,5.9618,1.4396
I20 K8 Pr4,3,0.0,0.25,0.0,0.0,0.625,0.125,0.0,0.0,0.125,0.0,0.0,1.84,0.8455,0.8,0.3459,4.0,1.1659,True,orthorhombic,mmm,62,42.5616,4.163,0.6372
Ca2 Ir2 Sn4,3,0.0,0.0,0.25,0.0,0.0,0.0,0.0,0.0,0.0,0.25,-0.75,1.2,0.4609,0.45,0.1709,2.0,0.7071,True,orthorhombic,mmm,63,22.7898,8.5562,0.5674
B2 Nd1 Ru3,3,0.0,0.0,0.0,0.0,0.0,0.1667,0.3333,0.0,0.1667,0.5,3.0,1.06,0.378,1.0,0.3384,6.0,2.0616,True,hexagonal,6/mmm,191,13.6569,9.5057,1.8271
Cl4 Pd2 Se12,3,0.0,0.0,0.0,0.6667,0.2222,0.0,0.0,0.0,0.0,0.1111,-1.3333,0.96,0.2949,0.4,0.1091,2.0,0.5666,True,monoclinic,2/m,14,30.6916,3.914,0.3771
Dy8 O16 Se4 Si4,4,0.0,0.0,0.0,0.625,0.0,0.25,0.125,0.0,0.25,0.0,-1.0,2.22,0.9435,1.15,0.4736,6.0,2.4717,True,orthorhombic,mmm,57,14.3683,7.1659,0.5588
Mg1 Pu2,2,0.6667,0.0,0.3333,0.0,0.0,0.0,0.0,0.0,0.6667,0.0,3.3333,0.03,0.0141,0.25,0.1179,6.0,2.8284,True,cubic,m-3m,225,32.5256,8.7183,1.0
C2 Pb2 Ti4,3,0.0,0.0,0.0,0.0,0.0,0.0,0.0,0.0,0.0,0.5,1.5,1.01,0.4567,1.1,0.3961,4.0,1.4142,True,hexagonal,6/mmm,194,15.8046,8.2726,0.2308
Si6 Sr10,2,0.0,0.0,0.625,0.0,0.0,0.0,0.375,0.0,0.0,0.0,-0.25,0.95,0.4599,0.9,0.4357,2.0,0.9682,True,tetragonal,4/mmm,140,32.3693,3.3496,0.8261
C1 Mg3 Zn1,3,0.0,0.0,0.6,0.0,0.0,0.0,0.0,0.0,0.0,0.2,0.8,1.24,0.4804,0.8,0.3105,2.0,0.6325,True,cubic,m-3m,221,17.1174,2.9168,1.0
Mn4 O16 Rb4,3,0.0,0.1667,0.0,0.6667,0.0,0.0,0.0,0.0,0.0,0.1667,-0.8333,2.62,1.0837,1.75,0.6606,3.0,1.2134,True,orthorhombic,mmm,62,18.8157,3.0065,0.6141
Ag3 Gd3 Ge3,3,0.0,0.0,0.0,0.0,0.0,0.3333,0.3333,0.0,0.3333,0.3333,0.0,0.81,0.3644,0.55,0.2273,4.0,1.6997,True,hexagonal,-6m2,189,21.5543,8.6736,1.6966
U30,1,1.0,0.0,0.0,0.0,0.0,0.0,0.0,0.0,1.0,0.0,6.0,0.0,0.0,0.0,0.0,0.0,0.0,True,tetragonal,4/mmm,136,20.5385,19.2446,0.5396
Er4 Ge4 Ir4,3,0.0,0.0,0.0,0.0,0.0,0.3333,0.3333,0.0,0.3333,0.3333,0.6667,0.96,0.4151,0.5,0.216,4.0,1.633,True,orthorhombic,mmm,62,18.6009,12.8586,0.5649
C2 O6 Sr2,3,0.0,0.0,0.2,0.6,0.0,0.0,0.0,0.0,0.0,0.0,-1.6,2.49,0.9703,1.4,0.5514,3.0,1.2,True,trigonal,-3m,167,14.8775,3.2955,1.2562
Pd2 Pu1 Si2,3,0.2,0.0,0.0,0.0,0.0,0.0,0.4,0.0,0.2,0.4,0.0,0.92,0.336,0.65,0.2408,6.0,2.1909,True,tetragonal,4/mmm,139,16.9099,10.0754,0.6847
Ba2 Cu1 O8 P2,4,0.0,0.0,0.1538,0.6154,0.0,0.0,0.0,0.0,0.0,0.0769,-1.2308,2.55,0.9638,1.55,0.5564,4.0,1.4391,True,monoclinic,2/m,12,16.6371,4.0549,0.7423
Dy2 O2 Te1,3,0.0,0.0,0.0,0.6,0.0,0.4,0.2,0.0,0.4,0.0,0.0,2.22,0.9971,1.15,0.5221,6.0,2.6833,True,tetragonal,4/mmm,139,19.3854,8.3021,0.5742
Sn1,1,0.0,0.0,0.0,0.0,0.0,0.0,0.0,0.0,0.0,0.0,-4.0,0.0,0.0,0.0,0.0,0.0,0.0,True,cubic,m-3m,229,27.6451,7.1305,1.0
Ba2 Cu2 Sb2,3,0.0,0.0,0.3333,0.0,0.0,0.0,0.3333,0.0,0.0,0.3333,0.3333,1.16,0.5151,0.8,0.3559,2.0,0.8165,True,hexagonal,6/mmm,194,29.6852,6.0158,0.4829
Cu4 Er4 P8,3,0.0,0.0,0.0,0.0,0.0,0.25,0.0,0.0,0.25,0.25,-0.25,0.95,0.388,0.75,0.3092,5.0,2.0616,True,monoclinic,2/m,14,16.6837,7.2845,0.1914
As2 K2 Sn2,3,0.0,0.3333,0.0,0.0,0.0,0.0,0.3333,0.0,0.0,0.0,-2.0,1.36,0.5961,1.05,0.4416,1.0,0.4714,True,hexagonal,6mm,186,32.693,3.9403,0.3225
Gd2 Sc2 Si2,3,0.0,0.0,0.0,0.0,0.0,0.3333,0.3333,0.0,0.3333,0.3333,0.6667,0.7,0.2995,0.7,0.2944,5.0,2.1602,True,tetragonal,4/mmm,139,23.2388,5.4852,0.5054
Cu1 Ti3,2,0.0,0.0,0.0,0.0,0.0,0.0,0.0,0.0,0.0,1.0,3.5,0.36,0.1559,0.05,0.0217,0.0,0.0,True,tetragonal,4/mmm,123,15.6648,5.4896,1.0004
Fe4 O24 Se8,3,0.0,0.0,0.0,0.8889,0.0,0.0,0.0,0.0,0.0,0.1111,-1.5556,1.61,0.5676,0.8,0.3062,2.0,0.9428,True,tetragonal,-42m,122,16.8992,3.382,1.0
Li6 Ni4 O24 P6,4,0.0,0.15,0.0,0.6,0.0,0.0,0.0,0.0,0.0,0.1,-1.3,2.46,0.9342,0.85,0.346,2.0,0.6538,True,monoclinic,2/m,12,10.3209,3.4038,0.2582
F20 Te4 Tl4,3,0.0,0.0,0.0,0.1429,0.7143,0.0,0.1429,0.0,0.0,0.0,-0.8571,2.36,0.9663,1.4,0.5364,4.0,1.6036,True,orthorhombic,mmm,62,19.0259,5.3236,0.2891
Li4 Mn4 O16 P4,4,0.0,0.1429,0.0,0.5714,0.0,0.0,0.0,0.0,0.0,0.1429,-1.1429,2.46,0.9788,0.85,0.363,2.0,0.7284,True,orthorhombic,mm2,33,13.1348,2.8328,2.0133
Cd6 Mg2,2,0.0,0.0,0.25,0.0,0.0,0.0,0.0,0.0,0.0,0.75,2.0,0.38,0.1645,0.05,0.0217,2.0,0.866,True,hexagonal,6/mmm,194,22.0601,6.8035,1.2608
As1 Ca2 I1,3,0.0,0.0,0.5,0.0,0.25,0.0,0.25,0.0,0.0,0.0,0.0,1.66,0.73,0.65,0.277,1.0,0.433,True,trigonal,-3m,166,31.554,3.7099,1.0