formula,numberOfSpecies,fracActinoid,fracAlkali,fracAlkaline,fracChalcogen,fracHalogen,fracLanthanoid,fracMetalloid,fracNobleGas,fracRareEarth,fracTransitionMetal,electronsPerAtom,electronegativityRange,electronegativityStd,radiiRange,radiiStd,rowRange,rowStd,ordered,crystalSystem,pointGroup,spaceGroupNumber,volumePerSite,density,c_a
C2 Co2 Gd2,3,0.0,0.0,0.0,0.0,0.0,0.3333,0.0,0.0,0.3333,0.3333,0.3333,1.35,0.5511,1.1,0.4515,6.0,2.4944,True,tetragonal,4/mmm,131,15.5322,8.132,0.5126
Ni8 Sc20 Te8,3,0.0,0.0,0.0,0.2222,0.0,0.0,0.2222,0.0,0.0,0.7778,1.6667,0.74,0.3267,0.25,0.113,1.0,0.4157,True,orthorhombic,mmm,62,21.0672,5.2317,0.2216
As1 F6 K1,3,0.0,0.125,0.0,0.0,0.75,0.0,0.125,0.0,0.0,0.0,-1.0,3.16,1.1264,1.7,0.5725,2.0,0.866,True,trigonal,-3,148,15.3823,3.0768,1.0
H2 Tb1,2,0.0,0.0,0.0,0.0,0.0,0.3333,0.0,0.0,0.3333,0.0,0.3333,2.2,1.0371,1.5,0.7071,7.0,3.2998,True,cubic,m-3m,225,12.0311,7.4044,1.0
Cl12 Cu4 Rb4,3,0.0,0.2,0.0,0.0,0.6,0.0,0.0,0.0,0.0,0.2,0.0,2.34,0.9456,1.35,0.5229,2.0,0.8,True,orthorhombic,mmm,60,27.4036,3.0949,0.5368
B4 Fe2 Mo1,3,0.0,0.0,0.0,0.0,0.0,0.0,0.5714,0.0,0.0,0.4286,2.8571,0.33,0.1132,0.6,0.2809,3.0,1.1952,True,orthorhombic,mmm,71,8.328,7.1461,0.4488
Br16 Ga4 Na4,3,0.0,0.1667,0.0,0.0,0.6667,0.0,0.0,0.0,0.0,0.0,0.0,2.03,0.7914,0.65,0.2375,1.0,0.3727,True,orthorhombic,mmm,62,34.8537,3.2741,0.5368
Li4 Ni2 O4,3,0.0,0.4,0.0,0.4,0.0,0.0,0.0,0.0,0.0,0.2,0.0,2.46,1.1067,0.85,0.4017,2.0,0.8,True,trigonal,-3m,164,8.618,4.0299,0.3075
Na3 O12 W4,3,0.0,0.1579,0.0,0.6316,0.0,0.0,0.0,0.0,0.0,0.2105,-0.2632,2.51,0.9227,1.2,0.4745,4.0,1.5894,True,cubic,m-3m,229,12.8559,6.7732,1.1547
As3 Cr6,2,0.0,0.0,0.0,0.0,0.0,0.0,0.3333,0.0,0.0,0.6667,1.0,0.52,0.2451,0.25,0.1179,0.0,0.0,True,hexagonal,-6m2,189,14.4016,6.8764,1.7839
Cu2 S2 Tl1,3,0.0,0.0,0.0,0.0,0.0,0.0,0.0,0.0,0.0,0.4,0.2,0.96,0.3924,0.9,0.3295,3.0,1.0954,True,tetragonal,4/mmm,139,19.5261,6.7286,0.5152
Er6 Ge8,2,0.0,0.0,0.0,0.0,0.0,0.4286,0.5714,0.0,0.4286,0.0,-1.0,0.77,0.3811,0.5,0.2474,4.0,1.9795,True,orthorhombic,mmm,63,21.7748,8.6319,0.2837
Cl14 Cu4 Rb6,3,0.0,0.25,0.0,0.0,0.5833,0.0,0.0,0.0,0.0,0.1667,-0.0,2.34,1.0007,1.35,0.5651,2.0,0.8498,True,orthorhombic,mmm,68,28.0371,3.1176,0.5607
Ga1 Ni2 Ti1,3,0.0,0.0,0.0,0.0,0.0,0.0,0.0,0.0,0.0,0.75,2.75,0.37,0.1514,0.1,0.0354,0.0,0.0,True,cubic,m-3m,225,12.7479,7.652,1.0
Ga2 H2 O4,3,0.0,0.0,0.0,0.5,0.0,0.0,0.0,0.0,0.0,0.0,-0.5,1.63,0.7306,1.05,0.3814,3.0,1.0897,True,orthorhombic,mm2,31,8.225,5.185,0.6022
Fe2 Ge2 Th1,3,0.2,0.0,0.0,0.0,0.0,0.0,0.4,0.0,0.2,0.4,0.0,0.71,0.2607,0.55,0.2015,5.0,2.0,True,tetragonal,4/mmm,139,16.812,9.6599,0.721
B4 Mo4,2,0.0,0.0,0.0,0.0,0.0,0.0,0.5,0.0,0.0,0.5,3.5,0.12,0.06,0.6,0.3,3.0,1.5,True,tetragonal,4/mmm,141,10.4565,8.4763,0.3554
C4 H24 N16 O4,4,0.0,0.0,0.0,0.0833,0.0,0.0,0.0,0.0,0.0,0.0,-2.0,1.24,0.451,0.45,0.201,1.0,0.5,True,monoclinic,2/m,14,8.4401,1.477,0.3184
Ga4 Se4 Te2,3,0.0,0.0,0.0,0.6,0.0,0.0,0.2,0.0,0.0,0.0,0.0,0.74,0.3325,0.25,0.097,1.0,0.4,True,tetragonal,4mm,109,30.3915,4.6439,0.9774
O6 P8 S12,3,0.0,0.0,0.0,0.2308,0.0,0.0,0.0,0.0,0.0,0.0,-2.3077,1.25,0.4597,0.4,0.1685,1.0,0.4213,True,monoclinic,2/m,11,26.0452,1.7866,0.5357
Eu1 Zn5,2,0.0,0.0,0.0,0.0,0.0,0.1667,0.0,0.0,0.1667,0.8333,2.0,1.65,0.6149,0.5,0.1863,4.0,1.4907,True,hexagonal,6/mmm,191,18.3372,7.2295,1.2745
Np1 Sn3,2,0.25,0.0,0.0,0.0,0.0,0.0,0.0,0.0,0.25,0.0,-1.75,0.6,0.2598,0.3,0.1299,4.0,1.7321,True,cubic,m-3m,221,25.3421,9.7162,1.0
As2 Nb6 Te6,3,0.0,0.0,0.0,0.4286,0.0,0.0,0.5714,0.0,0.0,0.4286,0.8571,0.58,0.2587,0.3,0.099,1.0,0.3499,True,hexagonal,6/m,176,24.5799,7.1074,2.939
Mg1 Nd1,2,0.0,0.0,0.5,0.0,0.0,0.5,0.0,0.0,0.5,0.0,2.5,0.17,0.085,0.35,0.175,5.0,2.5,True,cubic,m-3m,221,29.3232,4.7723,1.0
Mn2 Sb2,2,0.0,0.0,0.0,0.0,0.0,0.0,0.5,0.0,0.0,0.5,-0.5,0.5,0.25,0.05,0.025,1.0,0.5,True,hexagonal,6/mmm,194,20.3658,7.2036,0.7307
Cd8 Ge2 S12,3,0.0,0.0,0.0,0.0,0.0,0.0,0.0909,0.0,0.0,0.3636,-0.7273,0.89,0.4202,0.55,0.257,2.0,0.936,True,monoclinic,m,9,24.7564,4.3579,0.5769
B20 H44,2,0.0,0.0,0.0,0.0,0.0,0.0,0.3125,0.0,0.0,0.0,0.25,0.16,0.0742,0.6,0.2781,1.0,0.4635,True,monoclinic,2/m,14,10.2663,0.6585,0.6608
Ir4 Nd2,2,0.0,0.0,0.0,0.0,0.0,0.3333,0.0,0.0,0.3333,0.6667,3.0,1.06,0.4997,0.5,0.2357,2.0,0.9428,True,cubic,m-3m,227,19.006,15.3966,1.0
Te6 Tl4,2,0.0,0.0,0.0,0.6,0.0,0.0,0.6,0.0,0.0,0.0,-0.8,0.48,0.2352,0.5,0.2449,1.0,0.4899,True,monoclinic,2/m,15,35.1127,7.4869,0.8142
N1 Ni1,2,0.0,0.0,0.0,0.0,0.0,0.0,0.0,0.0,0.0,0.5,-0.5,1.13,0.565,0.7,0.35,2.0,1.0,True,cubic,-43m,216,10.0429,6.0103,1.0
Ge1 In1 Li1,3,0.0,0.3333,0.0,0.0,0.0,0.0,0.3333,0.0,0.0,0.0,0.0,1.03,0.4414,0.3,0.1247,3.0,1.2472,True,cubic,-43m,216,21.7625,4.9444,1.0
B4 Fe4 H4 O36 P8 Rb4,6,0.0,0.0667,0.0,0.6,0.0,0.0,0.0667,0.0,0.0,0.0667,-1.2667,2.62,0.8257,2.1,0.4833,4.0,0.9522,True,monoclinic,2/m,14,12.919,3.0769,0.8652
As20 K24 Sn12,3,0.0,0.4286,0.0,0.0,0.0,0.0,0.3571,0.0,0.0,0.0,-1.5,1.36,0.6373,1.05,0.4768,1.0,0.4103,True,orthorhombic,mmm,59,32.5478,3.5178,0.7236
In4 Sr1,2,0.0,0.0,0.2,0.0,0.0,0.0,0.0,0.0,0.0,0.0,2.8,0.83,0.332,0.45,0.18,0.0,0.0,True,tetragonal,4/mmm,139,30.3094,5.9924,0.6988
Li4 Ni4 O28 P8,4,0.0,0.0909,0.0,0.6364,0.0,0.0,0.0,0.0,0.0,0.0909,-1.5455,2.46,0.836,0.85,0.3135,2.0,0.6428,True,triclinic,-1,2,11.4227,3.1662,0.4776
Ba2 In4 Rh2,3,0.0,0.0,0.25,0.0,0.0,0.0,0.0,0.0,0.0,0.25,2.75,1.39,0.501,0.8,0.3,1.0,0.433,True,orthorhombic,mmm,63,27.0771,7.2038,0.5517
Cr2 O8 V2,3,0.0,0.0,0.0,0.6667,0.0,0.0,0.0,0.0,0.0,0.3333,0.0,1.81,0.8462,0.8,0.3656,2.0,0.9428,True,orthorhombic,mmm,63,12.3002,3.7561,0.8204
As4 Rh6 Yb1,3,0.0,0.0,0.0,0.0,0.0,0.0909,0.3636,0.0,0.0909,0.5455,0.8182,2.28,0.6456,0.6,0.1666,4.0,1.0833,True,hexagonal,-6m2,187,15.9448,10.3212,1.9144
O12 Pr4 Rh4,3,0.0,0.0,0.0,0.6,0.0,0.2,0.0,0.0,0.2,0.2,0.0,2.31,0.9245,1.25,0.5148,6.0,2.4,True,orthorhombic,mmm,62,12.7127,7.6233,0.6899
Ba2 S6 V2,3,0.0,0.0,0.2,0.0,0.0,0.0,0.0,0.0,0.0,0.2,0.2,1.69,0.6877,1.15,0.4461,3.0,1.1662,True,orthorhombic,mm2,36,22.5274,4.1937,0.8372
Bi10 S10,2,0.0,0.0,0.0,0.0,0.0,0.0,0.0,0.0,0.0,0.0,0.5,0.56,0.28,0.6,0.3,3.0,1.5,True,orthorhombic,mm2,38,51.2642,3.9039,0.3709
Ba6 Nd2 O18 Ru4,4,0.0,0.0,0.2,0.6,0.0,0.0667,0.0,0.0,0.0667,0.1333,-0.2,2.55,1.0824,1.55,0.6428,6.0,2.0591,True,monoclinic,2/m,15,15.5577,6.4208,0.4031
Ag4 Mo2 O8,3,0.0,0.0,0.0,0.5714,0.0,0.0,0.0,0.0,0.0,0.4286,-0.2857,1.51,0.7129,1.0,0.4724,3.0,1.4846,True,cubic,m-3m,227,15.1423,5.8853,1.0
P1 Tb1,2,0.0,0.0,0.0,0.0,0.0,0.5,0.0,0.0,0.5,0.0,0.0,2.19,1.095,0.75,0.375,5.0,2.5,True,cubic,m-3m,225,23.1318,6.8161,1.0
Cd6 Ho2,2,0.0,0.0,0.0,0.0,0.0,0.25,0.0,0.0,0.25,0.75,2.25,0.46,0.1992,0.2,0.0866,3.0,1.299,True,orthorhombic,mmm,63,23.8398,8.7444,0.7491
B6 Fe20 Nb3,3,0.0,0.0,0.0,0.0,0.0,0.0,0.2069,0.0,0.0,0.7931,2.5172,0.44,0.1192,0.6,0.2259,3.0,0.9136,True,cubic,m-3m,225,10.6208,7.874,1.0
Co1 Ge3 La1,3,0.0,0.0,0.0,0.0,0.0,0.2,0.6,0.0,0.2,0.4,-1.4,0.91,0.3546,0.7,0.2728,4.0,1.6,True,tetragonal,4mm,107,18.8613,7.3206,0.7464
In3 Rh3 Tm3,3,0.0,0.0,0.0,0.0,0.0,0.3333,0.0,0.0,0.3333,0.3333,3.0,1.03,0.4206,0.4,0.1633,3.0,1.4142,True,hexagonal,-6m2,189,21.0162,10.1836,1.9255
O12 Se4 Zn4,3,0.0,0.0,0.0,0.8,0.0,0.0,0.0,0.0,0.0,0.2,-1.2,1.79,0.7155,0.75,0.3247,2.0,0.9798,True,orthorhombic,mmm,62,12.042,5.3053,0.6576
K8 Mg8 O48 S12,4,0.0,0.1053,0.1053,0.6316,0.0,0.0,0.0,0.0,0.0,0.0,-1.2632,2.62,0.9553,1.6,0.523,2.0,0.6781,True,cubic,23,198,13.4447,2.6977,1.0
C1 Fe4,2,0.0,0.0,0.0,0.0,0.0,0.0,0.0,0.0,0.0,0.8,0.8,0.72,0.288,0.7,0.28,2.0,0.8,True,cubic,-43m,215,11.3383,6.8948,1.0
F6 Rh2,2,0.0,0.0,0.0,0.0,0.75,0.0,0.0,0.0,0.0,0.25,0.0,1.7,0.7361,0.85,0.3681,3.0,1.299,True,trigonal,-3m,167,12.5382,5.2943,1.0
Bi1 Sm1,2,0.0,0.0,0.0,0.0,0.0,0.5,0.0,0.0,0.5,0.0,3.0,0.85,0.425,0.25,0.125,2.0,1.0,True,cubic,m-3m,225,33.4979,8.9065,1.0
Rb4 Se10 Sn4,3,0.0,0.2222,0.0,0.5556,0.0,0.0,0.0,0.0,0.0,0.0,-1.7778,1.73,0.6904,1.2,0.4784,1.0,0.4969,True,monoclinic,2/m,15,33.6176,4.408,0.5998
F4 K2 Pd1,3,0.0,0.2857,0.0,0.0,0.5714,0.0,0.0,0.0,0.0,0.1429,0.0,3.16,1.4024,1.7,0.7511,3.0,1.1952,True,monoclinic,2/m,12,18.5448,3.3336,0.7392
F3 Sc1,2,0.0,0.0,0.0,0.0,0.75,0.0,0.0,0.0,0.0,0.25,0.0,2.62,1.1345,1.1,0.4763,2.0,0.866,True,cubic,m-3m,221,16.8497,2.5118,1.0
B2 Mn4,2,0.0,0.0,0.0,0.0,0.0,0.0,0.3333,0.0,0.0,0.6667,2.3333,0.49,0.231,0.55,0.2593,2.0,0.9428,True,tetragonal,4/mmm,140,8.7935,7.5968,1.0
K8 Se16 W4,3,0.0,0.2857,0.0,0.5714,0.0,0.0,0.0,0.0,0.0,0.1429,-0.2857,1.73,0.7671,1.05,0.4613,2.0,0.6999,True,orthorhombic,mmm,62,33.5658,4.084,0.5657
Er1 Ge6 Mn6,3,0.0,0.0,0.0,0.0,0.0,0.0769,0.4615,0.0,0.0769,0.4615,-0.6923,0.77,0.2637,0.5,0.1342,4.0,1.0659,True,hexagonal,6/mmm,191,14.5049,8.2138,0.6355
Ho6 Mn6 O18,3,0.0,0.0,0.0,0.6,0.0,0.2,0.0,0.0,0.2,0.2,-0.2,2.21,1.0094,1.15,0.4903,6.0,2.3324,True,hexagonal,6mm,185,12.7978,6.9512,0.5371
F116 Sb28,2,0.0,0.0,0.0,0.0,0.8056,0.0,0.1944,0.0,0.0,0.0,-1.3889,1.93,0.7638,0.95,0.376,3.0,1.1873,True,monoclinic,2/m,14,16.6111,3.8967,0.4267
Ca4 La4 Mn8 O24,4,0.0,0.0,0.1,0.6,0.0,0.1,0.0,0.0,0.1,0.3,-0.3,2.44,1.0605,1.35,0.5311,6.0,1.833,True,orthorhombic,mm2,31,11.703,5.4607,0.4983
Na2 Pr16 Se24,3,0.0,0.0476,0.0,0.5714,0.0,0.381,0.0,0.0,0.381,0.0,0.0476,1.62,0.7149,0.7,0.3438,5.0,1.9909,True,tetragonal,-42m,122,26.1983,6.3316,2.6006
Cd2 La4 Se8,3,0.0,0.0,0.0,0.5714,0.0,0.2857,0.0,0.0,0.2857,0.4286,0.0,1.45,0.6464,0.8,0.3523,4.0,1.7496,True,tetragonal,-42m,122,26.7984,6.2501,1.0
Ba2 Ce4 S8,3,0.0,0.0,0.1429,0.0,0.0,0.2857,0.0,0.0,0.2857,0.0,0.0,1.69,0.7638,1.15,0.4792,5.0,2.2315,True,tetragonal,-42m,122,24.8314,5.2143,1.0
Fe5 O8 Zn1,3,0.0,0.0,0.0,0.5714,0.0,0.0,0.0,0.0,0.0,0.4286,-0.2857,1.79,0.8128,0.8,0.392,2.0,0.9897,True,triclinic,1,1,11.298,4.9618,0.9996
Co4 Sn2 U4,3,0.4,0.0,0.0,0.0,0.0,0.0,0.0,0.0,0.4,0.4,2.4,0.58,0.2597,0.4,0.1833,5.0,2.3152,True,tetragonal,4/mmm,127,18.3214,12.9178,0.4604
In3 Tm1,2,0.0,0.0,0.0,0.0,0.0,0.25,0.0,0.0,0.25,0.0,3.0,0.53,0.2295,0.2,0.0866,3.0,1.299,True,cubic,m-3m,221,24.5949,8.6654,1.0
Cu2 Na4 O20 Si8,4,0.0,0.1176,0.0,0.5882,0.0,0.0,0.2353,0.0,0.0,0.0588,-1.8824,2.51,0.9375,1.2,0.4118,2.0,0.6056,True,triclinic,-1,2,13.2127,2.823,0.7057
Se8 Ti6,2,0.0,0.0,0.0,0.5714,0.0,0.0,0.0,0.0,0.0,0.4286,0.5714,1.01,0.4998,0.25,0.1237,0.0,0.0,True,hexagonal,6/m,176,21.7852,5.0029,2.7888
In2 Li1 Pt1,3,0.0,0.25,0.0,0.0,0.0,0.0,0.0,0.0,0.0,0.25,2.25,1.3,0.4657,0.2,0.0829,4.0,1.5,True,cubic,m-3m,225,18.148,9.8742,1.0
Fe4 Li2 O24 P6,4,0.0,0.0556,0.0,0.6667,0.0,0.0,0.0,0.0,0.0,0.1111,-1.5556,2.46,0.7811,0.85,0.3111,2.0,0.6781,True,monoclinic,2/m,15,12.8558,2.8958,0.9989
Al8 Ba12 N16,3,0.0,0.0,0.3333,0.0,0.0,0.0,0.0,0.0,0.0,0.0,0.0,2.15,0.9619,1.5,0.6549,4.0,1.7708,True,orthorhombic,mmm,52,18.3179,5.2575,0.6154
Pt2 Si2 Y1,3,0.0,0.0,0.0,0.0,0.0,0.0,0.4,0.0,0.0,0.6,-0.2,1.06,0.3873,0.7,0.2557,3.0,1.3565,True,tetragonal,4/mmm,139,17.4106,10.2098,0.7287
N8 Pd4 S24,3,0.0,0.0,0.0,0.0,0.0,0.0,0.0,0.0,0.0,0.1111,-1.7778,0.84,0.2439,0.75,0.2095,3.0,0.8165,True,monoclinic,2/m,14,27.2694,2.2113,0.627
Au7 Rb4 Sn2,3,0.0,0.3077,0.0,0.0,0.0,0.0,0.0,0.0,0.0,0.5385,1.3077,1.72,0.7613,1.0,0.4526,1.0,0.4985,True,trigonal,-3m,166,31.9498,7.8282,1.0
As2 Sr1 Zn2,3,0.0,0.0,0.2,0.0,0.0,0.0,0.4,0.0,0.0,0.4,-0.0,1.23,0.453,0.85,0.313,1.0,0.4,True,trigonal,-3m,164,23.0704,5.3016,0.5828
Np1 Pd2 Si2,3,0.2,0.0,0.0,0.0,0.0,0.0,0.4,0.0,0.2,0.4,0.2,0.84,0.3069,0.65,0.2408,6.0,2.1909,True,tetragonal,4/mmm,139,17.2355,9.7503,0.6914
Rh4 Sn4,2,0.0,0.0,0.0,0.0,0.0,0.0,0.0,0.0,0.0,0.5,-0.5,0.32,0.16,0.1,0.05,0.0,0.0,True,cubic,23,198,17.7083,10.3907,1.0
K6 S6,2,0.0,0.5,0.0,0.0,0.0,0.0,0.0,0.0,0.0,0.0,-0.5,1.76,0.88,1.2,0.6,1.0,0.5,True,hexagonal,-6m2,189,31.501,1.8756,1.4501
Cu2 Er4 K2 Se8,4,0.0,0.125,0.0,0.5,0.0,0.25,0.0,0.0,0.25,0.125,0.125,1.73,0.6821,1.05,0.3729,4.0,1.7321,True,orthorhombic,mmm,63,25.5687,6.1129,0.2857
Fe1 Li1 O2,3,0.0,0.25,0.0,0.5,0.0,0.0,0.0,0.0,0.0,0.25,-0.25,2.46,1.061,0.85,0.4129,2.0,0.866,True,trigonal,-3m,166,8.5863,4.5827,1.0
Co18 Si4 Th2,3,0.0833,0.0,0.0,0.0,0.0,0.0,0.1667,0.0,0.0833,0.75,1.1667,0.6,0.1615,0.7,0.1651,6.0,1.479,True,tetragonal,4/mmm,141,12.4035,9.1327,0.8314
Mg1 O6 Pt3,3,0.0,0.0,0.1,0.6,0.0,0.0,0.0,0.0,0.0,0.3,-0.4,2.13,0.7366,0.9,0.388,4.0,1.7916,True,orthorhombic,mmm,65,11.6441,10.0618,0.5254
In16 S24,2,0.0,0.0,0.0,0.0,0.0,0.0,0.0,0.0,0.0,0.0,0.0,0.8,0.3919,0.55,0.2694,2.0,0.9798,True,tetragonal,4/mmm,141,24.7864,4.3657,0.4481
Ce4 O12 V4,3,0.0,0.0,0.0,0.6,0.0,0.2,0.0,0.0,0.2,0.2,0.4,2.32,1.0244,1.25,0.5148,6.0,2.3324,True,orthorhombic,mmm,62,12.3492,6.4289,0.6956
Mn20 P12 U4,3,0.1111,0.0,0.0,0.0,0.0,0.0,0.0,0.0,0.1111,0.5556,0.7778,0.81,0.3193,0.75,0.2409,6.0,1.7498,True,orthorhombic,mmm,62,12.792,8.7354,0.3046
Li3 Sb1,2,0.0,0.75,0.0,0.0,0.0,0.0,0.25,0.0,0.0,0.0,0.0,1.07,0.4633,0.0,0.0,3.0,1.299,True,cubic,m-3m,225,17.6579,3.3521,1.0
Au4 Cd4 Eu4,3,0.0,0.0,0.0,0.0,0.0,0.3333,0.0,0.0,0.3333,0.6667,2.3333,2.54,1.0557,0.5,0.2055,3.0,1.2472,True,orthorhombic,mmm,62,25.7205,9.9282,0.5096
Cu2 K2 S6 U2,4,0.1667,0.1667,0.0,0.0,0.0,0.0,0.0,0.0,0.1667,0.1667,0.5,1.76,0.6821,1.2,0.4552,6.0,2.1344,True,orthorhombic,mmm,63,24.0472,5.0279,0.3848
Ga4 Li4 Se8,3,0.0,0.25,0.0,0.5,0.0,0.0,0.0,0.0,0.0,0.0,0.0,1.57,0.6478,0.3,0.1244,2.0,0.866,True,orthorhombic,mm2,33,24.2593,4.0143,0.7966
Fe8 Rb36 S28,3,0.0,0.5,0.0,0.0,0.0,0.0,0.0,0.0,0.0,0.1111,-0.0556,1.76,0.8266,1.35,0.6414,2.0,0.9362,True,cubic,23,198,32.4621,3.1412,1.0
Pt4 Si4 Tb4,3,0.0,0.0,0.0,0.0,0.0,0.3333,0.3333,0.0,0.3333,0.3333,0.3333,2.28,0.9974,0.65,0.2677,5.0,2.0548,True,orthorhombic,mmm,62,18.9727,11.1473,0.5754
B2 Co3 Lu1,3,0.0,0.0,0.0,0.0,0.0,0.1667,0.3333,0.0,0.1667,0.5,2.5,0.77,0.2612,0.9,0.3162,4.0,1.3744,True,hexagonal,6/mmm,191,10.6451,9.7075,1.6339
Hg12 I8 Se8,3,0.0,0.0,0.0,0.2857,0.2857,0.0,0.0,0.0,0.0,0.4286,-0.4286,0.66,0.3023,0.35,0.146,2.0,0.833,True,orthorhombic,mmm,74,35.9525,6.6872,0.8121
Ge4 Li4 O10,3,0.0,0.2222,0.0,0.5556,0.0,0.0,0.2222,0.0,0.0,0.0,-1.7778,2.46,1.0257,0.85,0.3786,2.0,0.8315,True,orthorhombic,mm2,37,13.1122,3.3653,0.6071
Ca2 Cu2 Ge4 O12,4,0.0,0.0,0.1,0.6,0.0,0.0,0.2,0.0,0.0,0.1,-1.6,2.44,0.8796,1.2,0.4232,2.0,0.9798,True,monoclinic,2/m,15,12.4354,4.6056,0.7854
Ag4 Se2,2,0.0,0.0,0.0,0.3333,0.0,0.0,0.0,0.0,0.0,0.6667,0.0,0.62,0.2923,0.45,0.2121,1.0,0.4714,True,orthorhombic,mmm,64,21.5793,7.559,0.4969
Cs4 Cu4 S16,3,0.0,0.1667,0.0,0.0,0.0,0.0,0.0,0.0,0.0,0.1667,-0.8333,1.79,0.6645,1.6,0.5843,3.0,1.1055,True,orthorhombic,222,19,27.8763,3.2237,0.3783
Nd4 Tl2,2,0.0,0.0,0.0,0.0,0.0,0.6667,0.0,0.0,0.6667,0.0,2.3333,0.48,0.2263,0.05,0.0236,2.0,0.9428,True,hexagonal,6/mmm,194,31.4341,8.6787,0.8017
In12 O32 P8,3,0.0,0.0,0.0,0.6154,0.0,0.0,0.0,0.0,0.0,0.0,-1.0,1.66,0.7384,0.95,0.3925,3.0,1.2308,True,cubic,-43m,220,13.9788,4.8831,1.0
Ge2 In2 O7,3,0.0,0.0,0.0,0.6364,0.0,0.0,0.1818,0.0,0.0,0.0,-1.4545,1.66,0.7464,0.95,0.3953,3.0,1.2398,True,monoclinic,2/m,12,13.4809,5.4524,0.8921
In3 Np1,2,0.25,0.0,0.0,0.0,0.0,0.0,0.0,0.0,0.25,0.0,3.5,0.42,0.1819,0.2,0.0866,4.0,1.7321,True,cubic,m-3m,221,25.2898,9.5446,1.0
Cu4 Ho2,2,0.0,0.0,0.0,0.0,0.0,0.3333,0.0,0.0,0.3333,0.6667,2.3333,0.67,0.3158,0.4,0.1886,4.0,1.8856,True,orthorhombic,mmm,74,17.5674,9.201,0.7879
Cr1 K3 O4,3,0.0,0.375,0.0,0.5,0.0,0.0,0.0,0.0,0.0,0.125,-0.25,2.62,1.2321,1.6,0.7416,2.0,1.0,True,tetragonal,-42m,121,20.0995,2.4092,1.0
O18 Te8,2,0.0,0.0,0.0,1.0,0.0,0.0,0.3077,0.0,0.0,0.0,-2.0,1.34,0.6185,0.8,0.3692,3.0,1.3846,True,trigonal,-3,148,15.1893,5.5031,1.0
Br8 S2 Tl12,3,0.0,0.0,0.0,0.0,0.3636,0.0,0.0,0.0,0.0,0.0,-0.0,1.34,0.6377,0.9,0.3905,3.0,1.1282,True,tetragonal,4/mmm,128,35.2941,6.7493,0.9416
Ge2 Te2 Zr2,3,0.0,0.0,0.0,0.3333,0.0,0.0,0.6667,0.0,0.0,0.3333,-0.6667,0.77,0.3437,0.3,0.1225,1.0,0.4714,True,tetragonal,4/mmm,129,22.6661,7.1176,0.4112
Ag7 N1 O11,3,0.0,0.0,0.0,0.5789,0.0,0.0,0.0,0.0,0.0,0.3684,-0.9474,1.51,0.7177,1.0,0.4805,3.0,1.4471,True,trigonal,3m,160,13.5096,6.1139,1.0
Si6 Ta10,2,0.0,0.0,0.0,0.0,0.0,0.0,0.375,0.0,0.0,0.625,1.625,0.4,0.1936,0.35,0.1694,3.0,1.4524,True,hexagonal,6/mmm,193,16.2011,12.671,1.4261
Cu5 Ho1,2,0.0,0.0,0.0,0.0,0.0,0.1667,0.0,0.0,0.1667,0.8333,2.1667,0.67,0.2497,0.4,0.1491,4.0,1.4907,True,hexagonal,6/mmm,191,14.7779,9.0392,1.231
As2 Ba1 Mg2,3,0.0,0.0,0.6,0.0,0.0,0.0,0.4,0.0,0.0,0.0,-0.0,1.29,0.518,1.0,0.3652,3.0,1.0954,True,trigonal,-3m,164,27.6013,4.0402,0.5803
Cs16 O16 Zr4,3,0.0,0.4444,0.0,0.4444,0.0,0.0,0.0,0.0,0.0,0.1111,0.0,2.65,1.2733,2.0,0.9429,4.0,1.9116,True,monoclinic,2/m,14,27.4877,4.6103,0.3609
Al8 Ca4 H16 O40 Si8,5,0.0,0.0,0.0526,0.5263,0.0,0.0,0.1053,0.0,0.0,0.0,-1.2632,2.44,0.8279,1.55,0.4002,3.0,0.7877,True,orthorhombic,mm2,33,9.1209,3.011,0.4515
Ca6 Mn2 N6,3,0.0,0.0,0.4286,0.0,0.0,0.0,0.0,0.0,0.0,0.1429,-0.1429,2.04,0.9586,1.15,0.5359,2.0,0.9897,True,orthorhombic,mmm,63,15.5076,3.3224,0.7595
La1 Li2 O7 Ta2,4,0.0,0.1667,0.0,0.5833,0.0,0.0833,0.0,0.0,0.0833,0.25,0.0833,2.46,1.1092,1.35,0.4858,6.0,2.075,True,tetragonal,4/mmm,139,12.3864,7.0011,0.4122
Cl12 Ta2 Te4,3,0.0,0.0,0.0,0.2222,0.6667,0.0,0.2222,0.0,0.0,0.1111,-0.5556,1.66,0.616,0.45,0.1969,3.0,1.1331,True,triclinic,-1,2,33.5341,3.5701,0.605
Ni16 Si7 Ta6,3,0.0,0.0,0.0,0.0,0.0,0.0,0.2414,0.0,0.0,0.7586,1.1724,0.41,0.1649,0.35,0.1248,3.0,1.0194,True,cubic,m-3m,225,12.2138,10.4141,1.0
C2 Sm1,2,0.0,0.0,0.0,0.0,0.0,0.3333,0.0,0.0,0.3333,0.0,-1.6667,1.38,0.6505,1.15,0.5421,6.0,2.8284,True,tetragonal,4/mmm,139,15.1754,6.3604,0.9083
Cu3 Ho1 O8 Pb2 Sr2,5,0.0,0.0,0.125,0.5,0.0,0.0625,0.0,0.0,0.0625,0.1875,0.0625,2.49,0.954,1.4,0.5694,6.0,1.8666,True,tetragonal,4/mmm,123,14.6533,7.6011,0.2394
Yb1,1,0.0,0.0,0.0,0.0,0.0,1.0,0.0,0.0,1.0,0.0,3.0,0.0,0.0,0.0,0.0,0.0,0.0,True,cubic,m-3m,229,39.8358,7.2131,1.0
Nd16 O56 Ti16,3,0.0,0.0,0.0,0.6364,0.0,0.1818,0.0,0.0,0.1818,0.1818,0.0,2.3,1.0174,1.25,0.5114,6.0,2.2709,True,monoclinic,2,4,12.7147,5.8914,0.2079
Ba1 Mg2 Si2,3,0.0,0.0,0.6,0.0,0.0,0.0,0.4,0.0,0.0,0.0,-0.4,1.01,0.3891,1.05,0.3842,3.0,1.2,True,tetragonal,4/mmm,139,24.0945,3.3371,0.7249
Ag2 P2 Sr2,3,0.0,0.0,0.3333,0.0,0.0,0.0,0.0,0.0,0.0,0.3333,0.0,1.24,0.5339,1.0,0.411,2.0,0.9428,True,hexagonal,6/mmm,194,23.8272,5.2608,0.5282
Mg2 S8 Tm4,3,0.0,0.0,0.1429,0.0,0.0,0.2857,0.0,0.0,0.2857,0.0,0.0,1.33,0.6485,0.75,0.3388,5.0,2.2588,True,tetragonal,-42m,122,19.8128,5.872,1.0
Ba2 Eu1 O6 Sb1,4,0.0,0.0,0.2,0.6,0.0,0.1,0.1,0.0,0.1,0.0,-0.9,3.44,1.3004,1.55,0.6623,6.0,2.1932,True,cubic,m-3m,225,16.0193,6.6795,1.0
Al3 Ta1,2,0.0,0.0,0.0,0.0,0.0,0.0,0.0,0.0,0.0,0.25,3.5,0.11,0.0476,0.2,0.0866,3.0,1.299,True,tetragonal,4/mmm,139,15.956,6.8138,0.7596
Gd1 Ge2 Mn2,3,0.0,0.0,0.0,0.0,0.0,0.2,0.4,0.0,0.2,0.4,-0.2,0.81,0.3101,0.55,0.2015,4.0,1.6,True,tetragonal,4/mmm,139,17.2155,7.9558,0.6467
Co2 La4 Mn2 O12,4,0.0,0.0,0.0,0.6,0.0,0.2,0.0,0.0,0.2,0.4,-0.2,2.34,1.0172,1.35,0.5515,6.0,2.3324,True,monoclinic,2/m,14,12.1727,6.6527,0.7112
S2 Ta1,2,0.0,0.0,0.0,0.0,0.0,0.0,0.0,0.0,0.0,0.3333,0.3333,1.08,0.5091,0.45,0.2121,3.0,1.4142,True,trigonal,3m,160,22.0164,6.1615,1.0
H8 K4 O16 P4,4,0.0,0.125,0.0,0.5,0.0,0.0,0.0,0.0,0.0,0.0,-1.5,2.62,0.8987,1.95,0.5867,3.0,0.927,True,monoclinic,2/m,14,12.7907,2.2084,0.3148
Ca2 Nb3 O10 Rb1,4,0.0,0.0625,0.125,0.625,0.0,0.0,0.0,0.0,0.0,0.1875,0.0,2.62,1.0704,1.75,0.5758,3.0,1.3229,True,tetragonal,4/mmm,123,15.0254,4.1743,0.2595
Cu2 Nd2 Sb4,3,0.0,0.0,0.0,0.0,0.0,0.25,0.5,0.0,0.25,0.25,-0.25,0.91,0.3774,0.5,0.192,4.0,1.5,True,tetragonal,4/mmm,129,24.226,7.7336,0.4327
Tl3 U1,2,0.25,0.0,0.0,0.0,0.0,0.0,0.0,0.0,0.25,0.0,2.25,0.24,0.1039,0.15,0.065,3.0,1.299,True,cubic,m-3m,221,27.0213,13.0769,1.0
La1 O2 Rb1,3,0.0,0.25,0.0,0.5,0.0,0.25,0.0,0.0,0.25,0.25,0.0,2.62,1.2439,1.75,0.7878,6.0,2.4875,True,trigonal,-3m,166,20.1654,5.2778,1.0
Nb2 Ni2 Te10,3,0.0,0.0,0.0,0.7143,0.0,0.0,0.7143,0.0,0.0,0.2857,-0.4286,0.5,0.1765,0.1,0.0267,1.0,0.3499,True,orthorhombic,mmm,63,27.8221,6.7324,0.2428
Mg1 Tl1,2,0.0,0.0,0.5,0.0,0.0,0.0,0.0,0.0,0.0,0.0,1.5,0.31,0.155,0.4,0.2,3.0,1.5,True,cubic,m-3m,221,25.1474,7.5504,1.0
Mo1 Ni1 O6 Sr2,4,0.0,0.0,0.2,0.6,0.0,0.0,0.0,0.0,0.0,0.2,-0.2,2.49,1.0154,1.4,0.5718,3.0,1.3748,True,cubic,m-3m,225,12.7017,5.5676,1.0
S4 Ta24,2,0.0,0.0,0.0,0.0,0.0,0.0,0.0,0.0,0.0,0.8571,4.0,1.08,0.3779,0.45,0.1575,3.0,1.0498,True,monoclinic,2/m,15,17.763,14.9273,0.3967