formula,numberOfSpecies,fracActinoid,fracAlkali,fracAlkaline,fracChalcogen,fracHalogen,fracLanthanoid,fracMetalloid,fracNobleGas,fracRareEarth,fracTransitionMetal,electronsPerAtom,electronegativityRange,electronegativityStd,radiiRange,radiiStd,rowRange,rowStd,ordered,crystalSystem,pointGroup,spaceGroupNumber,volumePerSite,density,c_a
Ce4 Cr4 S12,3,0.0,0.0,0.0,0.0,0.0,0.2,0.0,0.0,0.2,0.2,0.0,1.46,0.6075,0.85,0.3376,5.0,1.9391,True,orthorhombic,mmm,62,18.9584,5.0505,0.2921
C8 Er4 Mn2,3,0.0,0.0,0.0,0.0,0.0,0.2857,0.0,0.0,0.2857,0.1429,-1.1429,1.31,0.6048,1.05,0.4743,6.0,2.6186,True,orthorhombic,mmm,72,12.7545,8.137,0.7654
Cl2 Cs1 I1,3,0.0,0.25,0.0,0.0,0.75,0.0,0.0,0.0,0.0,0.0,-0.5,2.37,0.9757,1.6,0.6557,3.0,1.299,True,trigonal,-3m,166,38.8242,3.5362,1.0
In12 Rh4,2,0.0,0.0,0.0,0.0,0.0,0.0,0.0,0.0,0.0,0.25,3.0,0.5,0.2165,0.2,0.0866,0.0,0.0,True,tetragonal,4/mmm,136,22.9662,8.0864,0.979
Be1,1,0.0,0.0,1.0,0.0,0.0,0.0,0.0,0.0,0.0,0.0,2.0,0.0,0.0,0.0,0.0,0.0,0.0,True,cubic,m-3m,229,7.8146,1.915,1.0
O12 Re1 Tm6,3,0.0,0.0,0.0,0.6316,0.0,0.3158,0.0,0.0,0.3158,0.0526,-0.1053,2.19,1.021,1.15,0.534,6.0,2.789,True,trigonal,-3,148,13.1697,9.2363,1.0
Ba14 Ga8 Sb18,3,0.0,0.0,0.35,0.0,0.0,0.0,0.45,0.0,0.0,0.0,-0.05,1.16,0.5257,0.85,0.3602,2.0,0.7263,True,orthorhombic,mmm,59,36.4867,5.3157,0.393
Ni12 Tb12,2,0.0,0.0,0.0,0.0,0.0,0.5,0.0,0.0,0.5,0.5,2.5,1.91,0.955,0.4,0.2,4.0,2.0,True,monoclinic,2/m,11,20.1182,8.981,0.1982
Al4 C3,2,0.0,0.0,0.0,0.0,0.0,0.0,0.0,0.0,0.0,0.0,0.0,0.94,0.4652,0.55,0.2722,1.0,0.4949,True,trigonal,-3m,166,11.652,2.9308,1.0
Al4 I4 La6,3,0.0,0.0,0.0,0.0,0.2857,0.4286,0.0,0.0,0.4286,0.4286,1.8571,1.56,0.648,0.7,0.3144,5.0,2.1189,True,monoclinic,2/m,12,32.9077,5.2226,0.3825
O2 Se1 Yb2,3,0.0,0.0,0.0,0.6,0.0,0.4,0.0,0.0,0.4,0.0,0.0,3.44,1.5738,1.15,0.5144,6.0,2.7129,True,trigonal,-3m,164,18.6697,8.1301,0.4835
Ca8 Si4,2,0.0,0.0,0.6667,0.0,0.0,0.0,0.3333,0.0,0.0,0.0,0.0,0.9,0.4243,0.7,0.33,1.0,0.4714,True,orthorhombic,mmm,62,27.6711,2.1652,0.5327
B14 Co8 Nb6,3,0.0,0.0,0.0,0.0,0.0,0.0,0.5,0.0,0.0,0.5,3.1429,0.44,0.1709,0.6,0.2737,3.0,1.2637,True,orthorhombic,mmm,63,9.3712,7.4692,0.3433
Al8 Er12,2,0.0,0.0,0.0,0.0,0.0,0.6,0.0,0.0,0.6,0.0,3.0,0.37,0.1813,0.5,0.2449,5.0,2.4495,True,tetragonal,4/mmm,136,25.0882,7.3567,0.9237
O8 Sm2 Ta2,3,0.0,0.0,0.0,0.6667,0.0,0.1667,0.0,0.0,0.1667,0.1667,0.0,2.27,0.9969,1.25,0.5083,6.0,2.4267,True,monoclinic,2/m,13,13.1842,8.298,0.9337
Cr2 Li2 O24 P8,4,0.0,0.0556,0.0,0.6667,0.0,0.0,0.0,0.0,0.0,0.0556,-1.7778,2.46,0.772,0.85,0.2804,2.0,0.5774,True,monoclinic,m,9,13.8635,2.4942,1.1016
Ca2,1,0.0,0.0,1.0,0.0,0.0,0.0,0.0,0.0,0.0,0.0,2.0,0.0,0.0,0.0,0.0,0.0,0.0,True,hexagonal,6/mmm,194,42.4154,1.569,0.604
Ba8 Cd6 S20 Tb4,4,0.0,0.0,0.2105,0.0,0.0,0.1053,0.0,0.0,0.1053,0.1579,0.0,2.58,0.9151,1.15,0.468,5.0,1.728,True,orthorhombic,mm2,36,27.1443,4.9102,0.1555
Rh4 Tm2,2,0.0,0.0,0.0,0.0,0.0,0.3333,0.0,0.0,0.3333,0.6667,3.0,1.03,0.4855,0.4,0.1886,3.0,1.4142,True,cubic,m-3m,227,17.6813,11.7314,1.0
Cu2 Na2 S6 Zr2,4,0.0,0.1667,0.0,0.0,0.0,0.0,0.0,0.0,0.0,0.3333,0.1667,1.65,0.6597,0.8,0.3118,2.0,0.7638,True,orthorhombic,mmm,63,19.8831,3.8132,0.3784
Al2 Cl2 O2,3,0.0,0.0,0.0,0.3333,0.3333,0.0,0.0,0.0,0.0,0.0,0.0,1.83,0.8048,0.65,0.2677,1.0,0.4714,True,orthorhombic,mmm,59,16.4306,2.6423,0.4309
Nb1 S2,2,0.0,0.0,0.0,0.0,0.0,0.0,0.0,0.0,0.0,0.3333,0.3333,0.98,0.462,0.45,0.2121,2.0,0.9428,True,trigonal,-3m,166,22.0138,3.9485,1.0
B6 K2 O18 Zn8,4,0.0,0.0588,0.0,0.5294,0.0,0.0,0.1765,0.0,0.0,0.2353,0.0,2.62,0.9096,1.6,0.4415,2.0,0.9113,True,monoclinic,2/m,13,13.3567,3.4895,0.3958
Ca5 P8,2,0.0,0.0,0.3846,0.0,0.0,0.0,0.0,0.0,0.0,0.0,-1.0769,1.19,0.5789,0.8,0.3892,1.0,0.4865,True,monoclinic,2/m,12,22.6975,2.5222,0.9173
Ir2 Na2 Nd4 O12,4,0.0,0.1,0.0,0.6,0.0,0.2,0.0,0.0,0.2,0.1,-0.2,2.51,1.0698,1.25,0.561,6.0,2.4515,True,monoclinic,2/m,14,13.3337,7.4683,0.6918
Cr2 Ge6 Nd2,3,0.0,0.0,0.0,0.0,0.0,0.2,0.6,0.0,0.2,0.2,-1.2,0.87,0.3411,0.6,0.2324,4.0,1.6,True,hexagonal,6/mmm,194,18.8859,7.283,1.0739
Mg2 Pb1,2,0.0,0.0,0.6667,0.0,0.0,0.0,0.0,0.0,0.0,0.0,2.0,1.02,0.4808,0.3,0.1414,3.0,1.4142,True,cubic,m-3m,225,27.5836,5.1333,1.0
Cu1 Fe1 Pt2,3,0.0,0.0,0.0,0.0,0.0,0.0,0.0,0.0,0.0,1.0,2.0,0.45,0.209,0.05,0.0217,2.0,1.0,True,tetragonal,4/mmm,123,14.0806,15.0232,0.9051
Li4 O10 Si2 Ti2,4,0.0,0.2222,0.0,0.5556,0.0,0.0,0.1111,0.0,0.0,0.1111,-0.8889,2.46,1.0708,0.85,0.3851,2.0,0.6667,True,tetragonal,4/mmm,129,10.4996,2.9844,0.6939
Cu4 N24 O48 Tl10 Y2,5,0.0,0.0,0.0,0.5455,0.0,0.0,0.0,0.0,0.0,0.0682,-1.6364,2.22,0.6704,1.3,0.4488,4.0,1.352,True,cubic,m-3,201,14.6281,4.618,1.0
Cr2 S4,2,0.0,0.0,0.0,0.0,0.0,0.0,0.0,0.0,0.0,0.3333,-0.3333,0.92,0.4337,0.4,0.1886,1.0,0.4714,True,monoclinic,2/m,12,33.864,1.8981,0.1545
In4 S12 Sb4,3,0.0,0.0,0.0,0.0,0.0,0.0,0.2,0.0,0.0,0.0,-1.2,0.8,0.3368,0.55,0.247,2.0,0.9798,True,orthorhombic,mmm,62,25.0851,4.4057,0.2882
Bi4 Br4 S4,3,0.0,0.0,0.0,0.0,0.3333,0.0,0.0,0.0,0.0,0.0,0.0,0.94,0.3861,0.6,0.255,3.0,1.2472,True,orthorhombic,mmm,62,30.5169,5.8214,0.3865
Cd8 S12 Si2,3,0.0,0.0,0.0,0.0,0.0,0.0,0.0909,0.0,0.0,0.3636,-0.7273,0.89,0.426,0.55,0.2592,2.0,0.9621,True,monoclinic,m,9,24.2669,4.1686,0.5758
F11 I2 Sb2,3,0.0,0.0,0.0,0.0,0.8667,0.0,0.1333,0.0,0.0,0.0,-1.2667,1.93,0.7357,0.95,0.4093,3.0,1.3266,True,monoclinic,2,5,21.0918,3.7072,0.6971
Ba12 Na4 O34 Ru4 V4,5,0.0,0.069,0.2069,0.5862,0.0,0.0,0.0,0.0,0.0,0.1379,-0.1379,2.55,1.1322,1.55,0.6446,4.0,1.6537,True,hexagonal,6/mmm,194,15.935,5.1958,0.1967
B8 Lu4 Ru4,3,0.0,0.0,0.0,0.0,0.0,0.25,0.5,0.0,0.25,0.25,3.0,0.93,0.3624,0.9,0.3731,4.0,1.7854,True,orthorhombic,mmm,62,12.059,10.247,0.8369
Ba5 Dy8 O21 Zn4,4,0.0,0.0,0.1316,0.5526,0.0,0.2105,0.0,0.0,0.2105,0.1053,-0.0,2.55,1.117,1.55,0.6149,6.0,2.4709,True,tetragonal,4/m,87,14.6457,7.7106,0.5621
In4 Rb1,2,0.0,0.2,0.0,0.0,0.0,0.0,0.0,0.0,0.0,0.0,2.6,0.96,0.384,0.8,0.32,0.0,0.0,True,tetragonal,4/mmm,139,32.7031,5.532,0.6874
Er6 Se12 Sm2,3,0.0,0.0,0.0,0.6,0.0,0.4,0.0,0.0,0.4,0.0,0.0,1.38,0.6506,0.7,0.3074,4.0,1.9596,True,monoclinic,2/m,11,26.4306,7.0736,0.3468
Br6 K2 Re1,3,0.0,0.2222,0.0,0.0,0.6667,0.0,0.0,0.0,0.0,0.1111,0.0,2.14,0.8891,1.05,0.4291,2.0,0.6285,True,cubic,m-3m,225,33.8968,4.0487,1.0
Cl16 Cu2 Ga4,3,0.0,0.0,0.0,0.0,0.7273,0.0,0.0,0.0,0.0,0.0909,0.0,1.35,0.5883,0.35,0.1416,1.0,0.4454,True,monoclinic,2/m,14,30.8996,2.3773,0.5411
Ag4 C4 O8,3,0.0,0.0,0.0,0.5,0.0,0.0,0.0,0.0,0.0,0.25,-1.75,1.51,0.6388,1.0,0.4206,3.0,1.299,True,monoclinic,2/m,14,14.0462,4.4887,0.4242
O12 Ru4 Sr4,3,0.0,0.0,0.2,0.6,0.0,0.0,0.0,0.0,0.0,0.2,-0.2,2.49,0.9955,1.4,0.56,3.0,1.4697,True,orthorhombic,mmm,62,17.8425,4.4055,0.3911
Bi1 Cu1 Mg1,3,0.0,0.0,0.3333,0.0,0.0,0.0,0.0,0.0,0.0,0.3333,2.3333,0.71,0.3103,0.25,0.1027,3.0,1.2472,True,cubic,-43m,216,22.1787,7.408,1.0
F6 K2 Th1,3,0.1111,0.2222,0.0,0.0,0.6667,0.0,0.0,0.0,0.1111,0.0,0.0,3.16,1.4202,1.7,0.7465,7.0,2.1999,True,hexagonal,-6m2,189,16.5679,4.7243,1.7317
Mg6 O16 P4,3,0.0,0.0,0.2308,0.6154,0.0,0.0,0.0,0.0,0.0,0.0,-1.2308,2.13,0.9054,0.9,0.3729,1.0,0.4865,True,monoclinic,2/m,14,12.6714,2.6497,0.6142
Co4 Li4 O36 P12,4,0.0,0.0714,0.0,0.6429,0.0,0.0,0.0,0.0,0.0,0.0714,-1.7143,2.46,0.7955,0.85,0.2934,2.0,0.6103,True,orthorhombic,222,19,11.4454,3.1379,0.9657
Na30 Sn8,2,0.0,0.7895,0.0,0.0,0.0,0.0,0.0,0.0,0.0,0.0,-0.0526,1.03,0.4199,0.35,0.1427,2.0,0.8154,True,cubic,-43m,220,30.0702,2.3824,1.0
H1 Se1 Y1,3,0.0,0.0,0.0,0.3333,0.0,0.0,0.0,0.0,0.0,0.3333,0.0,1.33,0.5629,1.55,0.6355,4.0,1.6997,True,hexagonal,-6m2,187,16.8176,5.5581,0.9817
Ce2 Ge2 K2 Se8,4,0.0,0.1429,0.0,0.5714,0.0,0.1429,0.1429,0.0,0.1429,0.0,-1.1429,1.73,0.6942,1.05,0.3989,4.0,1.3997,True,monoclinic,2,4,30.7165,4.3842,0.7597
Au2 Er1,2,0.0,0.0,0.0,0.0,0.0,0.3333,0.0,0.0,0.3333,0.6667,3.0,1.3,0.6128,0.4,0.1886,2.0,0.9428,True,tetragonal,4/mmm,139,20.8932,14.8674,0.7124
In1 Pr1,2,0.0,0.0,0.0,0.0,0.0,0.5,0.0,0.0,0.5,0.0,3.0,0.65,0.325,0.3,0.15,3.0,1.5,True,cubic,m-3m,221,29.9172,7.097,1.0
Ag2 Er2 S4,3,0.0,0.0,0.0,0.0,0.0,0.25,0.0,0.0,0.25,0.25,0.0,1.34,0.5541,0.75,0.3416,5.0,2.0463,True,orthorhombic,mmm,74,21.9781,6.4081,1.0638
Nb1 Ru1,2,0.0,0.0,0.0,0.0,0.0,0.0,0.0,0.0,0.0,1.0,4.0,0.6,0.3,0.15,0.075,0.0,0.0,True,tetragonal,4/mmm,123,16.1789,9.9545,0.8878
As1 Ge1,2,0.0,0.0,0.0,0.0,0.0,0.0,1.0,0.0,0.0,0.0,-3.5,0.17,0.085,0.1,0.05,0.0,0.0,True,tetragonal,4mm,107,21.1074,5.8044,0.9291
K2 O24 Th4 V6,4,0.1111,0.0556,0.0,0.6667,0.0,0.0,0.0,0.0,0.1111,0.1667,0.0,2.62,0.9834,1.6,0.5248,7.0,2.1999,True,monoclinic,2/m,15,15.2221,5.1392,0.7174
B1 Ce1 Pd3,3,0.0,0.0,0.0,0.0,0.0,0.2,0.2,0.0,0.2,0.6,2.4,1.08,0.4206,1.0,0.3172,6.0,1.8974,True,cubic,m-3m,221,16.8183,9.2847,1.0
Ni4 P8,2,0.0,0.0,0.0,0.0,0.0,0.0,0.0,0.0,0.0,0.3333,-1.3333,0.28,0.132,0.35,0.165,1.0,0.4714,True,cubic,m-3,205,13.5109,4.9424,1.0
Bi4 K4 P8 S28,4,0.0,0.0909,0.0,0.0,0.0,0.0,0.0,0.0,0.0,0.0,-1.4545,1.76,0.5083,1.2,0.3699,3.0,0.8814,True,monoclinic,2/m,14,26.161,3.0841,0.7249
I4 In4 Te4,3,0.0,0.0,0.0,0.3333,0.3333,0.0,0.3333,0.0,0.0,0.0,0.0,0.88,0.3637,0.15,0.0707,0.0,0.0,True,monoclinic,2/m,14,43.5809,4.6907,0.9165
S16 Sr4 Y8,3,0.0,0.0,0.1429,0.0,0.0,0.0,0.0,0.0,0.0,0.2857,0.0,1.63,0.7224,1.0,0.4333,2.0,0.9897,True,orthorhombic,mmm,62,24.843,3.7593,0.278
Si4 Ti4,2,0.0,0.0,0.0,0.0,0.0,0.0,0.5,0.0,0.0,0.5,0.0,0.36,0.18,0.3,0.15,1.0,0.5,True,orthorhombic,mm2,25,14.609,4.3166,0.4811
O28 P8 Pb4 Zn4,4,0.0,0.0,0.0,0.6364,0.0,0.0,0.0,0.0,0.0,0.0909,-1.4545,1.79,0.6681,1.2,0.3855,4.0,1.2129,True,monoclinic,2/m,14,13.5405,4.9785,0.4133
Gd2 Ru2 Si2,3,0.0,0.0,0.0,0.0,0.0,0.3333,0.3333,0.0,0.3333,0.3333,0.6667,1.0,0.419,0.7,0.2944,5.0,2.0548,True,tetragonal,4/mmm,129,19.8148,8.0005,0.6304
As4 Ce4 S4,3,0.0,0.0,0.0,0.0,0.0,0.3333,0.3333,0.0,0.3333,0.0,-0.6667,1.46,0.616,0.85,0.3704,5.0,2.1602,True,orthorhombic,mmm,62,21.7863,6.278,0.235
Cl6 K2 Ru1,3,0.0,0.2222,0.0,0.0,0.6667,0.0,0.0,0.0,0.0,0.1111,-0.1111,2.34,0.9625,1.2,0.4899,2.0,0.6849,True,cubic,m-3m,225,26.9711,2.6815,1.0
Gd2,1,0.0,0.0,0.0,0.0,0.0,1.0,0.0,0.0,1.0,0.0,3.0,0.0,0.0,0.0,0.0,0.0,0.0,True,hexagonal,6/mmm,194,33.3315,7.834,0.6262
Ni5 Pu1,2,0.1667,0.0,0.0,0.0,0.0,0.0,0.0,0.0,0.1667,0.8333,2.3333,0.63,0.2348,0.4,0.1491,5.0,1.8634,True,hexagonal,6/mmm,191,13.6826,10.8713,1.2381
Be1 Pd2,2,0.0,0.0,0.3333,0.0,0.0,0.0,0.0,0.0,0.0,0.6667,2.0,0.63,0.297,0.35,0.165,3.0,1.4142,True,tetragonal,4/mmm,139,12.7302,9.6462,0.5196
Cl4 La6 Si6,3,0.0,0.0,0.0,0.0,0.25,0.375,0.375,0.0,0.375,0.375,-0.625,2.06,0.7979,0.95,0.4326,5.0,2.4206,True,monoclinic,2/m,12,25.5281,4.6499,0.3978
Ca4 Mg4 Sn4,3,0.0,0.0,0.6667,0.0,0.0,0.0,0.0,0.0,0.0,0.0,0.0,0.96,0.4,0.35,0.1546,2.0,0.8165,True,orthorhombic,mmm,62,27.3368,3.7073,0.5353
Ni1 Sc6 Te2,3,0.0,0.0,0.0,0.2222,0.0,0.0,0.2222,0.0,0.0,0.7778,1.7778,0.74,0.3231,0.25,0.103,1.0,0.4157,True,hexagonal,-6m2,189,21.7944,4.9408,2.0822
Ga4 Sc2,2,0.0,0.0,0.0,0.0,0.0,0.0,0.0,0.0,0.0,0.3333,3.0,0.45,0.2121,0.3,0.1414,0.0,0.0,True,orthorhombic,mmm,65,18.1514,5.6232,0.6167
Al4 Nd2,2,0.0,0.0,0.0,0.0,0.0,0.3333,0.0,0.0,0.3333,0.0,3.0,0.47,0.2216,0.6,0.2828,5.0,2.357,True,cubic,m-3m,227,21.6879,5.0585,1.0
Ba2 O4 Pb1,3,0.0,0.0,0.2857,0.5714,0.0,0.0,0.0,0.0,0.0,0.0,-0.2857,2.55,1.1166,1.55,0.7175,4.0,1.9795,True,tetragonal,4/mmm,139,18.5247,6.99,0.5942
Li8 O12 Ti4,3,0.0,0.3333,0.0,0.5,0.0,0.0,0.0,0.0,0.0,0.1667,-0.0,2.46,1.1519,0.85,0.417,2.0,0.7454,True,monoclinic,2/m,15,9.104,3.3363,0.5186
Au82 Mg26,2,0.0,0.0,0.2407,0.0,0.0,0.0,0.0,0.0,0.0,0.7593,2.7593,1.23,0.5259,0.15,0.0641,3.0,1.2826,True,hexagonal,6/mmm,193,17.9055,14.4116,1.5833
As2 Mg3,2,0.0,0.0,0.6,0.0,0.0,0.0,0.4,0.0,0.0,0.0,-0.0,0.87,0.4262,0.35,0.1715,1.0,0.4899,True,trigonal,-3m,164,21.6854,3.4115,0.6352
P2 Ru2 Sm1,3,0.0,0.0,0.0,0.0,0.0,0.2,0.0,0.0,0.2,0.4,0.6,1.03,0.41,0.85,0.3105,5.0,1.833,True,tetragonal,4/mmm,139,16.2513,8.4696,0.7167
Ba4 Cl16 Zn4,3,0.0,0.0,0.1667,0.0,0.6667,0.0,0.0,0.0,0.0,0.1667,0.0,2.27,0.9176,1.15,0.4223,3.0,1.1055,True,orthorhombic,mmm,52,30.105,3.1674,0.7217
C6 H12 O6,3,0.0,0.0,0.0,0.25,0.0,0.0,0.0,0.0,0.0,0.0,-2.0,1.24,0.507,0.45,0.2031,1.0,0.5,True,trigonal,3m,161,9.1551,1.3615,1.0
Cu2 P2 Sr2,3,0.0,0.0,0.3333,0.0,0.0,0.0,0.0,0.0,0.0,0.3333,0.3333,1.24,0.5296,1.0,0.4143,2.0,0.8165,True,hexagonal,6/mmm,194,20.9616,4.8096,0.485
Cs8 F128 I24,3,0.0,0.05,0.0,0.0,0.95,0.0,0.0,0.0,0.0,0.0,-0.9,3.19,0.8015,2.1,0.5333,4.0,1.3143,True,cubic,-43m,218,18.0459,3.7617,1.0
K8 O20 Te8,3,0.0,0.2222,0.0,0.7778,0.0,0.0,0.2222,0.0,0.0,0.0,-1.3333,2.62,1.0724,1.6,0.6532,3.0,1.2862,True,monoclinic,2/m,14,19.0481,4.0042,0.3623
Mn2 O16 Ta4 Zn4,4,0.0,0.0,0.0,0.6154,0.0,0.0,0.0,0.0,0.0,0.3846,-0.0,1.94,0.9107,0.85,0.3902,4.0,1.4916,True,monoclinic,2/m,15,12.02,7.18,0.5179
In3 Nd3 Pd3,3,0.0,0.0,0.0,0.0,0.0,0.3333,0.0,0.0,0.3333,0.3333,2.6667,1.06,0.4358,0.45,0.1871,3.0,1.4142,True,hexagonal,-6m2,189,23.6349,8.5593,1.9592
Ni3 Sn4,2,0.0,0.0,0.0,0.0,0.0,0.0,0.0,0.0,0.0,0.4286,-1.4286,0.05,0.0247,0.1,0.0495,1.0,0.4949,True,monoclinic,2/m,12,18.2654,8.4537,0.6325
O24 S6 V4,3,0.0,0.0,0.0,0.7059,0.0,0.0,0.0,0.0,0.0,0.1176,-1.1765,1.81,0.6188,0.75,0.263,2.0,0.691,True,monoclinic,2/m,15,12.5323,3.0403,0.8901
Cu5 Tm1,2,0.0,0.0,0.0,0.0,0.0,0.1667,0.0,0.0,0.1667,0.8333,2.1667,0.65,0.2422,0.4,0.1491,4.0,1.4907,True,cubic,-43m,216,14.1441,9.5225,1.0
Rb8 Te4,2,0.0,0.6667,0.0,0.3333,0.0,0.0,0.3333,0.0,0.0,0.0,0.0,1.28,0.6034,0.95,0.4478,0.0,0.0,True,orthorhombic,mmm,62,47.986,3.4436,0.5067
Ir2 Sn2,2,0.0,0.0,0.0,0.0,0.0,0.0,0.0,0.0,0.0,0.5,-0.5,0.24,0.12,0.1,0.05,1.0,0.5,True,hexagonal,6/mmm,194,19.9679,12.9284,0.7106
Ga8 Li40 O32,3,0.0,0.5,0.0,0.4,0.0,0.0,0.0,0.0,0.0,0.0,0.0,2.46,1.1623,0.85,0.4065,2.0,0.6,True,orthorhombic,mmm,61,9.9027,2.8242,0.9895
Ba1 Te1,2,0.0,0.0,0.5,0.5,0.0,0.0,0.5,0.0,0.0,0.0,0.0,1.21,0.605,0.75,0.375,1.0,0.5,True,cubic,m-3m,221,38.7216,5.6806,1.0
Ag2 Nd2 Si2,3,0.0,0.0,0.0,0.0,0.0,0.3333,0.3333,0.0,0.3333,0.3333,0.0,0.79,0.3655,0.75,0.3118,5.0,2.0548,True,hexagonal,6/mmm,194,22.5296,6.8839,0.5669
Br28 C2 Th12,3,0.2857,0.0,0.0,0.0,0.6667,0.0,0.0,0.0,0.2857,0.0,0.2857,1.66,0.7426,1.1,0.3215,7.0,2.357,True,orthorhombic,mmm,64,37.3571,5.3402,0.8173
B20 Co4 Ho4 O40,4,0.0,0.0,0.0,0.5882,0.0,0.0588,0.2941,0.0,0.0588,0.0588,0.0,2.21,0.7782,1.15,0.3081,6.0,1.46,True,monoclinic,2/m,14,9.1147,4.6929,0.8115
Ge2 Nd1 Pt2,3,0.0,0.0,0.0,0.0,0.0,0.2,0.4,0.0,0.2,0.4,-0.2,1.14,0.4197,0.6,0.2245,4.0,1.4967,True,tetragonal,4/mmm,139,19.5964,11.519,0.7478
Te3 Zn3,2,0.0,0.0,0.0,0.5,0.0,0.0,0.5,0.0,0.0,0.5,0.0,0.45,0.225,0.05,0.025,1.0,0.5,True,trigonal,32,152,26.6884,6.0045,0.4449
Li4 Mn2 O24 P8,4,0.0,0.1053,0.0,0.6316,0.0,0.0,0.0,0.0,0.0,0.0526,-1.6842,2.46,0.8761,0.85,0.3112,2.0,0.5669,True,monoclinic,2/m,15,13.6207,2.4685,1.1408
Lu1 Ni1 Sb1,3,0.0,0.0,0.0,0.0,0.0,0.3333,0.3333,0.0,0.3333,0.3333,0.6667,0.78,0.3395,0.4,0.17,2.0,0.8165,True,cubic,-43m,216,20.4358,9.6267,1.0
Be4 F16 Na8,3,0.0,0.2857,0.1429,0.0,0.5714,0.0,0.0,0.0,0.0,0.0,0.0,3.05,1.4176,1.3,0.5688,1.0,0.4518,True,orthorhombic,mmm,62,13.045,2.3819,0.4468
Al2 F8 Tl2,3,0.0,0.0,0.0,0.0,0.6667,0.0,0.0,0.0,0.0,0.0,0.0,2.37,1.1149,1.4,0.5404,4.0,1.4625,True,monoclinic,2/m,15,14.5114,5.8618,0.6971
Li4 O8 Ti4,3,0.0,0.25,0.0,0.5,0.0,0.0,0.0,0.0,0.0,0.25,0.25,2.46,1.1078,0.85,0.4129,2.0,0.866,True,cubic,m-3m,227,9.2258,3.9061,1.0
Be8 Mn4,2,0.0,0.0,0.6667,0.0,0.0,0.0,0.0,0.0,0.0,0.3333,2.0,0.02,0.0094,0.35,0.165,2.0,0.9428,True,hexagonal,6/mmm,194,8.3791,4.8198,0.6131
Cu3 Sb1 Se4,3,0.0,0.0,0.0,0.5,0.0,0.0,0.125,0.0,0.0,0.375,-0.625,0.65,0.3097,0.3,0.1166,1.0,0.3307,True,tetragonal,-42m,121,23.2713,5.6035,0.8197
Ag1 I1,2,0.0,0.0,0.0,0.0,0.5,0.0,0.0,0.0,0.0,0.5,0.0,0.73,0.365,0.2,0.1,0.0,0.0,True,cubic,-43m,216,36.6098,5.3244,1.0
O32 P8 V6,3,0.0,0.0,0.0,0.6957,0.0,0.0,0.0,0.0,0.0,0.1304,-1.2609,1.81,0.7024,0.75,0.2705,2.0,0.7118,True,monoclinic,2/m,14,13.2821,2.8956,1.7205
B12 Er4 Ni28,3,0.0,0.0,0.0,0.0,0.0,0.0909,0.2727,0.0,0.0909,0.6364,2.3636,0.8,0.2116,0.9,0.2697,6.0,1.5851,True,tetragonal,4/mmm,141,10.3034,8.9453,0.8063
Ce2 Ru4,2,0.0,0.0,0.0,0.0,0.0,0.3333,0.0,0.0,0.3333,0.6667,3.0,1.08,0.5091,0.55,0.2593,3.0,1.4142,True,cubic,m-3m,227,18.1381,10.4445,1.0
Pb2 S12 Ta6,3,0.0,0.0,0.0,0.0,0.0,0.0,0.0,0.0,0.0,0.3,0.5,1.08,0.4841,0.8,0.2802,3.0,1.4697,True,hexagonal,6/mmm,193,22.0999,7.0812,0.3865
As6 Eu2 Ni10,3,0.0,0.0,0.0,0.0,0.0,0.1111,0.3333,0.0,0.1111,0.5556,0.3333,2.18,0.644,0.7,0.2025,4.0,1.2571,True,orthorhombic,mmm,63,15.0146,8.2356,0.3155
Mn6 Sn2,2,0.0,0.0,0.0,0.0,0.0,0.0,0.0,0.0,0.0,0.75,0.5,0.41,0.1775,0.05,0.0217,1.0,0.433,True,hexagonal,6/mmm,194,15.1773,7.755,1.2476
Cd2 Y1,2,0.0,0.0,0.0,0.0,0.0,0.0,0.0,0.0,0.0,1.0,2.3333,0.47,0.2216,0.25,0.1179,0.0,0.0,True,trigonal,-3m,164,24.904,6.9729,1.4217
Dy2 H6 O6,3,0.0,0.0,0.0,0.4286,0.0,0.1429,0.0,0.0,0.1429,0.0,-0.8571,2.22,0.8018,1.5,0.4911,7.0,2.3212,True,hexagonal,6/m,176,8.8623,5.7154,1.7943
Ge1 Li2 Pb1 S4,4,0.0,0.25,0.0,0.0,0.0,0.0,0.125,0.0,0.0,0.0,-1.0,1.6,0.6602,0.8,0.2811,4.0,1.199,True,tetragonal,-42m,121,21.339,4.1047,1.0
F28 Kr4 Sb4,3,0.0,0.0,0.0,0.0,0.7778,0.0,0.1111,0.1111,0.0,0.0,-1000,1.93,0.645,-1000,-1000,3.0,1.0657,True,monoclinic,2/m,14,18.2723,3.4185,0.4902
Ba2 Mn4 O12 Y2,4,0.0,0.0,0.1,0.6,0.0,0.0,0.0,0.0,0.0,0.3,-0.3,2.55,1.0614,1.55,0.5684,4.0,1.4457,True,monoclinic,2/m,13,12.1545,5.9034,0.7032
Al14 Au6 Yb2,3,0.0,0.0,0.0,0.0,0.0,0.0909,0.0,0.0,0.0909,0.2727,3.0,2.54,0.6782,0.5,0.142,5.0,1.7628,True,trigonal,-3m,167,18.3732,7.8285,1.0
Be8 P16,2,0.0,0.0,0.3333,0.0,0.0,0.0,0.0,0.0,0.0,0.0,-1.3333,0.62,0.2923,0.05,0.0236,1.0,0.4714,True,monoclinic,2/m,15,15.8677,2.4753,0.8958
W8,1,0.0,0.0,0.0,0.0,0.0,0.0,0.0,0.0,0.0,1.0,4.0,0.0,0.0,0.0,0.0,0.0,0.0,True,cubic,m-3m,223,16.4729,18.5319,1.0
Ge4 Ir2 Nd4,3,0.0,0.0,0.0,0.0,0.0,0.4,0.4,0.0,0.4,0.2,0.2,1.06,0.4625,0.6,0.28,4.0,1.7889,True,monoclinic,2/m,12,24.1248,8.6174,0.3596
Ba4 S10 Zr3,3,0.0,0.0,0.2353,0.0,0.0,0.0,0.0,0.0,0.0,0.1765,0.0,1.69,0.752,1.15,0.479,3.0,1.3048,True,tetragonal,4/mmm,139,26.9352,4.1473,0.2757
Ca3 O1 Sn1,3,0.0,0.0,0.6,0.2,0.0,0.0,0.0,0.0,0.0,0.0,-0.0,2.44,0.9553,1.2,0.4652,3.0,0.9798,True,cubic,m-3m,221,22.8291,3.7088,1.0
N4 S12 Sm12,3,0.0,0.0,0.0,0.0,0.0,0.4286,0.0,0.0,0.4286,0.0,-0.0,1.87,0.7696,1.2,0.4779,6.0,2.6186,True,orthorhombic,mmm,62,22.5725,5.8987,0.3016
Al3 Nb1,2,0.0,0.0,0.0,0.0,0.0,0.0,0.0,0.0,0.0,0.25,3.5,0.01,0.0043,0.2,0.0866,2.0,0.866,True,tetragonal,4/mmm,139,16.0316,4.5018,0.7545
Bi2 Co1 Ho6,3,0.0,0.0,0.0,0.0,0.0,0.6667,0.0,0.0,0.6667,0.1111,2.8889,0.79,0.3525,0.4,0.1293,4.0,1.3699,True,hexagonal,-6m2,189,27.4266,9.8653,2.0515
Al2 Cd1 Te4,3,0.0,0.0,0.0,0.5714,0.0,0.0,0.5714,0.0,0.0,0.1429,0.0,0.49,0.2306,0.3,0.0958,2.0,0.9035,True,tetragonal,-4,82,33.7937,4.7507,0.8442
Br20 O8 Pb18,3,0.0,0.0,0.0,0.1739,0.4348,0.0,0.0,0.0,0.0,0.0,0.0,1.11,0.4108,1.2,0.439,4.0,1.4394,True,tetragonal,4/m,85,29.6703,6.6377,0.6884
O7 V2 Zn2,3,0.0,0.0,0.0,0.6364,0.0,0.0,0.0,0.0,0.0,0.3636,0.0,1.81,0.8659,0.75,0.3608,2.0,0.9621,True,monoclinic,2/m,12,13.1236,3.965,0.9241
Li4 Mn2 O24 P8,4,0.0,0.1053,0.0,0.6316,0.0,0.0,0.0,0.0,0.0,0.0526,-1.6842,2.46,0.8761,0.85,0.3112,2.0,0.5669,True,monoclinic,2/m,14,13.8444,2.4286,0.9828
Sb1 U1,2,0.5,0.0,0.0,0.0,0.0,0.0,0.5,0.0,0.5,0.0,1.5,0.67,0.335,0.3,0.15,4.0,2.0,True,cubic,m-3m,221,25.9433,11.5144,1.0
F8 Na4 Pd2,3,0.0,0.2857,0.0,0.0,0.5714,0.0,0.0,0.0,0.0,0.1429,0.0,3.05,1.3577,1.3,0.5904,3.0,1.0302,True,monoclinic,2/m,14,14.4515,3.7491,0.3414
As6 Pr8,2,0.0,0.0,0.0,0.0,0.0,0.5714,0.4286,0.0,0.5714,0.0,0.4286,1.05,0.5196,0.7,0.3464,4.0,1.9795,True,cubic,-43m,220,27.1459,6.8896,1.0
Au6 F24 La2,3,0.0,0.0,0.0,0.0,0.75,0.0625,0.0,0.0,0.0625,0.25,0.0,2.88,0.8395,1.45,0.4521,6.0,1.9961,True,trigonal,-3m,167,17.5289,5.6708,1.0
Gd4,1,0.0,0.0,0.0,0.0,0.0,1.0,0.0,0.0,1.0,0.0,3.0,0.0,0.0,0.0,0.0,0.0,0.0,True,hexagonal,6/mmm,194,32.9046,7.9357,0.3103
Ce3 Cu3 In3,3,0.0,0.0,0.0,0.0,0.0,0.3333,0.0,0.0,0.3333,0.3333,2.6667,0.78,0.3429,0.5,0.2055,4.0,1.6997,True,hexagonal,-6m2,189,22.4286,7.8597,1.7153
Al1 C1 Ho3,3,0.0,0.0,0.0,0.0,0.0,0.6,0.0,0.0,0.6,0.0,1.6,1.32,0.5116,1.05,0.4176,6.0,2.7129,True,cubic,m-3m,221,22.8839,7.7467,1.0
Al6 W3,2,0.0,0.0,0.0,0.0,0.0,0.0,0.0,0.0,0.0,0.3333,3.3333,0.75,0.3536,0.1,0.0471,3.0,1.4142,True,hexagonal,622,181,15.5068,8.4883,0.718