formula,numberOfSpecies,fracActinoid,fracAlkali,fracAlkaline,fracChalcogen,fracHalogen,fracLanthanoid,fracMetalloid,fracNobleGas,fracRareEarth,fracTransitionMetal,electronsPerAtom,electronegativityRange,electronegativityStd,radiiRange,radiiStd,rowRange,rowStd,ordered,crystalSystem,pointGroup,spaceGroupNumber,volumePerSite,density,c_a
Ba1 O3 Ti1,3,0.0,0.0,0.2,0.6,0.0,0.0,0.0,0.0,0.0,0.2,0.0,2.55,1.1092,1.55,0.6226,4.0,1.6,True,cubic,m-3m,221,13.1446,5.8917,1.0
N8,1,0.0,0.0,0.0,0.0,0.0,0.0,0.0,0.0,0.0,0.0,-3.0,0.0,0.0,0.0,0.0,0.0,0.0,True,cubic,23,198,25.3146,0.9188,1.0
Na2 Tl2,2,0.0,0.5,0.0,0.0,0.0,0.0,0.0,0.0,0.0,0.0,1.0,0.69,0.345,0.1,0.05,3.0,1.5,True,cubic,m-3m,227,28.2856,6.6741,1.0
C4 O8 Pb2,3,0.0,0.0,0.0,0.5714,0.0,0.0,0.0,0.0,0.0,0.0,-2.0,1.11,0.4815,1.2,0.4106,4.0,1.3997,True,triclinic,-1,2,14.2934,4.8996,0.8038
Bi2 O8 W1,3,0.0,0.0,0.0,0.7273,0.0,0.0,0.0,0.0,0.0,0.0909,-0.5455,1.42,0.5879,1.0,0.4129,4.0,1.7814,True,triclinic,1,1,14.5809,7.5557,0.9376
Ba4 Cd4 O8,3,0.0,0.0,0.25,0.5,0.0,0.0,0.0,0.0,0.0,0.25,0.0,2.55,1.1116,1.55,0.66,4.0,1.7854,True,orthorhombic,mmm,62,17.7391,6.5933,0.3052
As4 K4 Se8,3,0.0,0.25,0.0,0.5,0.0,0.0,0.25,0.0,0.0,0.0,-1.5,1.73,0.7119,1.05,0.4547,0.0,0.0,True,triclinic,1,1,34.2986,3.2914,0.5297
Al2 B2 O6,3,0.0,0.0,0.0,0.6,0.0,0.0,0.2,0.0,0.0,0.0,0.0,1.83,0.8028,0.65,0.2542,1.0,0.4,True,trigonal,-3m,167,8.147,3.4972,1.0
Ir24 Si40,2,0.0,0.0,0.0,0.0,0.0,0.0,0.625,0.0,0.0,0.375,-1.375,0.3,0.1452,0.25,0.121,3.0,1.4524,True,monoclinic,2/m,14,15.0815,9.8692,0.4523
Cl6 Y2,2,0.0,0.0,0.0,0.0,0.75,0.0,0.0,0.0,0.0,0.25,0.0,1.94,0.84,0.8,0.3464,2.0,0.866,True,monoclinic,2/m,12,35.2514,2.2995,1.0105
C5 Si5,2,0.0,0.0,0.0,0.0,0.0,0.0,0.5,0.0,0.0,0.0,-4.0,0.65,0.325,0.4,0.2,1.0,0.5,True,trigonal,3m,160,10.4962,3.1717,1.0
Ni14 Zr4,2,0.0,0.0,0.0,0.0,0.0,0.0,0.0,0.0,0.0,1.0,2.4444,0.58,0.2411,0.2,0.0831,1.0,0.4157,True,monoclinic,2/m,12,12.9672,8.4418,0.3861
Ba8 Li4 Si12,3,0.0,0.1667,0.3333,0.0,0.0,0.0,0.5,0.0,0.0,0.0,-1.1667,1.01,0.4909,1.05,0.4703,4.0,1.5723,True,orthorhombic,mmm,70,27.1804,3.7252,0.8176
Hf2 Si2 Te2,3,0.0,0.0,0.0,0.3333,0.0,0.0,0.6667,0.0,0.0,0.3333,-0.6667,0.8,0.3399,0.45,0.1871,3.0,1.2472,True,tetragonal,4/mmm,129,23.0686,8.0183,0.3553
Co12 Li2 O48 P14,4,0.0,0.0263,0.0,0.6316,0.0,0.0,0.0,0.0,0.0,0.1579,-1.4737,2.46,0.7337,0.85,0.3022,2.0,0.7522,True,monoclinic,2/m,11,11.7003,3.5904,0.8371
O48 Pb12 Te18,3,0.0,0.0,0.0,0.8462,0.0,0.0,0.2308,0.0,0.0,0.0,-1.3846,1.34,0.6112,1.2,0.4826,4.0,1.6818,True,orthorhombic,mmm,63,17.9219,6.5941,0.3756
F2 Ti1,2,0.0,0.0,0.0,0.0,0.6667,0.0,0.0,0.0,0.0,0.3333,0.6667,2.44,1.1502,0.9,0.4243,2.0,0.9428,True,cubic,m-3m,225,11.6711,4.0722,1.0
Br12 Sb4,2,0.0,0.0,0.0,0.0,0.75,0.0,0.25,0.0,0.0,0.0,-1.5,0.91,0.394,0.3,0.1299,1.0,0.433,True,orthorhombic,222,19,48.5204,3.0927,0.3165
K16 Mg8 O32 Si8,4,0.0,0.25,0.125,0.5,0.0,0.0,0.125,0.0,0.0,0.0,-1.0,2.62,1.1572,1.6,0.6647,2.0,0.8292,True,orthorhombic,mm2,29,15.1771,2.6612,0.3509
Mn2 Si2 Yb1,3,0.0,0.0,0.0,0.0,0.0,0.2,0.4,0.0,0.2,0.4,-0.2,1.9,0.7075,0.65,0.2408,5.0,1.8547,True,tetragonal,4/mmm,139,16.0108,7.0336,0.6688
Cu1 Hf2 Sb3,3,0.0,0.0,0.0,0.0,0.0,0.0,0.5,0.0,0.0,0.5,0.1667,0.75,0.34,0.2,0.0687,2.0,0.6872,True,tetragonal,-42m,115,21.9167,9.9229,0.4559
Te6 U2,2,0.25,0.0,0.0,0.75,0.0,0.0,0.75,0.0,0.25,0.0,0.0,0.72,0.3118,0.35,0.1516,4.0,1.7321,True,orthorhombic,mmm,63,30.9415,8.3295,0.3349
Al8 B4 Re12,3,0.0,0.0,0.0,0.0,0.0,0.0,0.1667,0.0,0.0,0.5,3.5,0.43,0.161,0.5,0.1772,4.0,1.6997,True,cubic,m-3m,227,12.965,13.3073,1.0
Li8 Sn8 Tm8,3,0.0,0.3333,0.0,0.0,0.0,0.3333,0.0,0.0,0.3333,0.0,0.0,0.98,0.4133,0.3,0.1414,6.0,2.4495,True,hexagonal,6mm,186,22.5174,7.2414,1.2957
B8 Er2 Rh8,3,0.0,0.0,0.0,0.0,0.0,0.1111,0.4444,0.0,0.1111,0.4444,3.0,1.04,0.3105,0.9,0.3119,6.0,2.0,True,tetragonal,4/mmm,137,11.7785,9.7453,0.7167
Mg1 Sr1,2,0.0,0.0,1.0,0.0,0.0,0.0,0.0,0.0,0.0,0.0,2.0,0.36,0.18,0.5,0.25,2.0,1.0,True,cubic,m-3m,221,36.9326,2.5162,1.0
Cr2 Li2 O14 P4,4,0.0,0.0909,0.0,0.6364,0.0,0.0,0.0,0.0,0.0,0.0909,-1.4545,2.46,0.8642,0.85,0.3215,2.0,0.6428,True,monoclinic,2,4,12.029,2.9225,0.5949
Ag1 P2 Se6 V1,4,0.0,0.0,0.0,0.6,0.0,0.0,0.0,0.0,0.0,0.2,-1.2,0.92,0.3129,0.6,0.1659,2.0,0.5385,True,monoclinic,2,5,26.4269,4.364,0.8317
Ba4 O16 Si4 V2,4,0.0,0.0,0.1538,0.6154,0.0,0.0,0.1538,0.0,0.0,0.0769,-1.1538,2.55,1.0133,1.55,0.5587,4.0,1.4391,True,tetragonal,4mm,100,15.1873,4.2874,0.6197
Ge4 Lu4 Na4 O16,4,0.0,0.1429,0.0,0.5714,0.0,0.1429,0.1429,0.0,0.1429,0.0,-1.1429,2.51,1.0502,1.2,0.5209,4.0,1.4142,True,orthorhombic,mmm,62,13.6275,5.8244,0.4666
Bi4 Cs12 O12,3,0.0,0.4286,0.0,0.4286,0.0,0.0,0.0,0.0,0.0,0.0,0.0,2.65,1.2272,2.0,0.9258,4.0,1.9795,True,cubic,23,198,30.0568,5.175,1.0
Fe2 P2 S6,3,0.0,0.0,0.0,0.0,0.0,0.0,0.0,0.0,0.0,0.2,-1.4,0.75,0.3016,0.4,0.16,1.0,0.4,True,monoclinic,2/m,12,21.5395,2.8218,0.8067
Co1 Na1 O2,3,0.0,0.25,0.0,0.5,0.0,0.0,0.0,0.0,0.0,0.25,-0.25,2.51,1.0715,1.2,0.5128,2.0,0.8292,True,trigonal,-3m,166,9.6905,4.8804,1.0
Cu4 Dy3 Ge4,3,0.0,0.0,0.0,0.0,0.0,0.2727,0.3636,0.0,0.2727,0.3636,0.0909,0.79,0.3307,0.5,0.2049,4.0,1.7814,True,orthorhombic,mmm,71,17.5991,8.8542,0.5247
Mn1 Zn1,2,0.0,0.0,0.0,0.0,0.0,0.0,0.0,0.0,0.0,1.0,2.0,0.1,0.05,0.05,0.025,0.0,0.0,True,cubic,m-3m,221,13.4888,7.4077,1.0
Ba2 Bi4 Cd2,3,0.0,0.0,0.25,0.0,0.0,0.0,0.0,0.0,0.0,0.25,2.5,1.13,0.4618,0.6,0.2462,1.0,0.433,True,tetragonal,4/mmm,139,34.9842,7.9231,0.3745
Fe2 Li4 O8 Si2,4,0.0,0.25,0.0,0.5,0.0,0.0,0.125,0.0,0.0,0.125,-1.0,2.46,1.0563,0.85,0.3889,2.0,0.696,True,orthorhombic,mm2,31,10.7559,3.1226,0.7913
Ho1 Sb2,2,0.0,0.0,0.0,0.0,0.0,0.3333,0.6667,0.0,0.3333,0.0,-1.0,0.82,0.3866,0.3,0.1414,3.0,1.4142,True,orthorhombic,222,21,28.4087,7.9582,0.4701
Cu4 Sb2,2,0.0,0.0,0.0,0.0,0.0,0.0,0.3333,0.0,0.0,0.6667,0.3333,0.15,0.0707,0.1,0.0471,1.0,0.4714,True,tetragonal,4/mmm,129,16.4696,8.3635,0.652
H2 Mg1 O2,3,0.0,0.0,0.2,0.4,0.0,0.0,0.0,0.0,0.0,0.0,-0.8,2.13,0.82,1.25,0.4576,2.0,0.7483,True,trigonal,-3m,164,8.4062,2.3041,0.6663
Ba4 Ir2 O12 Y2,4,0.0,0.0,0.2,0.6,0.0,0.0,0.0,0.0,0.0,0.2,-0.2,2.55,1.102,1.55,0.6525,4.0,1.8574,True,monoclinic,2/m,14,15.0924,7.1711,0.707
Nd8 O14 Pd2,3,0.0,0.0,0.0,0.5833,0.0,0.3333,0.0,0.0,0.3333,0.0833,-0.0,2.3,1.0652,1.25,0.5836,6.0,2.7726,True,triclinic,-1,2,15.2397,7.2222,0.87
F12 Hg8 O2,3,0.0,0.0,0.0,0.0909,0.5455,0.0,0.0,0.0,0.0,0.3636,-0.3636,1.98,0.9277,1.0,0.475,4.0,1.9242,True,hexagonal,6mm,186,15.2493,9.2297,1.2887
K2 O8 Tc2,3,0.0,0.1667,0.0,0.6667,0.0,0.0,0.0,0.0,0.0,0.1667,-0.5,2.62,1.0289,1.6,0.6058,3.0,1.2134,True,tetragonal,4/m,88,18.2878,3.0433,0.7496
Cu2 Pd2 Rb2 Se10,4,0.0,0.125,0.0,0.625,0.0,0.0,0.0,0.0,0.0,0.25,-0.625,1.73,0.5708,1.2,0.3877,1.0,0.433,True,monoclinic,2/m,11,26.8301,5.0304,0.6858
B72 O10,2,0.0,0.0,0.0,0.122,0.0,0.0,0.878,0.0,0.0,0.0,2.3902,1.4,0.4581,0.25,0.0818,0.0,0.0,True,triclinic,-1,2,7.4327,2.5566,0.7642
N1 Nb1,2,0.0,0.0,0.0,0.0,0.0,0.0,0.0,0.0,0.0,0.5,1.0,1.44,0.72,0.8,0.4,3.0,1.5,True,cubic,m-3m,225,11.0335,8.0452,1.0
O3 W1,2,0.0,0.0,0.0,0.75,0.0,0.0,0.0,0.0,0.0,0.25,-0.5,1.08,0.4677,0.75,0.3248,4.0,1.7321,True,cubic,m-3m,221,14.406,6.6808,1.0
Pd4 Sn2 U4,3,0.4,0.0,0.0,0.0,0.0,0.0,0.0,0.0,0.4,0.4,2.4,0.82,0.373,0.35,0.1643,4.0,1.9596,True,tetragonal,4/mmm,127,22.2842,12.036,0.4942
Fe12 Sn12 Tb2,3,0.0,0.0,0.0,0.0,0.0,0.0769,0.0,0.0,0.0769,0.4615,-0.6923,1.96,0.5088,0.35,0.0899,4.0,1.0491,True,orthorhombic,mmm,63,17.5878,8.7606,0.5225
Co4 Li2 O8,3,0.0,0.1429,0.0,0.5714,0.0,0.0,0.0,0.0,0.0,0.2857,-0.4286,2.46,0.9615,0.85,0.3889,2.0,0.9035,True,cubic,m-3m,227,9.8358,4.5536,1.0
Ge4 Pr2,2,0.0,0.0,0.0,0.0,0.0,0.3333,0.6667,0.0,0.3333,0.0,-1.6667,0.88,0.4148,0.6,0.2828,4.0,1.8856,True,tetragonal,4/mmm,141,23.8456,6.6431,0.4848
Cr20 Hf24 Si28,3,0.0,0.0,0.0,0.0,0.0,0.0,0.3889,0.0,0.0,0.6111,0.6111,0.6,0.2547,0.45,0.1951,3.0,1.2826,True,orthorhombic,mmm,62,15.2189,9.2593,0.3123
Mn2 Na10 O8,3,0.0,0.5,0.0,0.4,0.0,0.0,0.0,0.0,0.0,0.1,-0.1,2.51,1.1925,1.2,0.5671,2.0,0.6403,True,orthorhombic,mm2,31,14.0867,2.757,0.7467
Au4 Ca4 Ga4,3,0.0,0.0,0.3333,0.0,0.0,0.0,0.0,0.0,0.0,0.3333,2.6667,1.54,0.629,0.5,0.2248,2.0,0.9428,True,orthorhombic,mmm,62,21.9322,7.742,0.5913
Co1 La4 O8,3,0.0,0.0,0.0,0.6154,0.0,0.3077,0.0,0.0,0.3077,0.3846,-0.1538,2.34,1.08,1.35,0.6166,6.0,2.7175,True,orthorhombic,mmm,65,13.9607,6.794,0.773
Li4 Mg4 N4,3,0.0,0.3333,0.3333,0.0,0.0,0.0,0.0,0.0,0.0,0.0,0.0,2.06,0.9034,0.85,0.3894,1.0,0.4714,True,orthorhombic,mmm,62,10.6308,2.3562,0.4883
P10 Pr2,2,0.0,0.0,0.0,0.0,0.0,0.1667,0.0,0.0,0.1667,0.0,-2.0,1.06,0.395,0.85,0.3168,5.0,1.8634,True,monoclinic,2/m,11,21.9251,3.7335,0.5276
Au2 Ge2 Lu2,3,0.0,0.0,0.0,0.0,0.0,0.3333,0.3333,0.0,0.3333,0.3333,0.6667,1.27,0.5208,0.5,0.216,2.0,0.9428,True,hexagonal,6mm,186,20.4273,12.0465,0.6198
Ca2 Nd16 Se24,3,0.0,0.0,0.0476,0.5714,0.0,0.381,0.0,0.0,0.381,0.0,0.0952,1.55,0.7061,0.7,0.3438,4.0,1.9425,True,monoclinic,m,9,25.6113,6.6118,2.5953
La4 O16 V4,3,0.0,0.0,0.0,0.6667,0.0,0.1667,0.0,0.0,0.1667,0.3333,0.0,2.34,0.9901,1.35,0.5244,6.0,2.2111,True,monoclinic,2/m,14,14.3553,4.8939,0.9253
F11 Na1 Zn1 Zr2,4,0.0,0.0667,0.0,0.0,0.7333,0.0,0.0,0.0,0.0,0.2,0.0,3.05,1.1881,1.3,0.477,3.0,1.0832,True,monoclinic,2/m,12,14.941,3.5552,0.7287
Mn2 Sc4 Se8,3,0.0,0.0,0.0,0.5714,0.0,0.0,0.0,0.0,0.0,0.4286,0.0,1.19,0.5606,0.45,0.1995,0.0,0.0,True,cubic,m-3m,227,24.7582,4.4141,1.0
Li1 Se2 Y1,3,0.0,0.25,0.0,0.5,0.0,0.0,0.0,0.0,0.0,0.25,0.0,1.57,0.7299,0.65,0.2678,3.0,1.0897,True,trigonal,-3m,166,23.3867,4.5046,1.0
Al5 O20 P5,3,0.0,0.0,0.0,0.6667,0.0,0.0,0.0,0.0,0.0,0.0,-1.3333,1.83,0.745,0.65,0.2578,1.0,0.4714,True,cubic,-43m,216,22.168,1.5225,1.0
Pt6 U2,2,0.25,0.0,0.0,0.0,0.0,0.0,0.0,0.0,0.25,0.75,3.0,0.9,0.3897,0.4,0.1732,3.0,1.299,True,hexagonal,6/mmm,194,17.9254,19.0664,1.1398
B20 Co58 Nd6 Si8,4,0.0,0.0,0.0,0.0,0.0,0.0652,0.3043,0.0,0.0652,0.6304,1.7609,0.9,0.2029,1.0,0.2579,6.0,1.3899,True,tetragonal,4/mmm,129,10.6748,7.9883,0.7024
C3 Si2 U3,3,0.375,0.0,0.0,0.0,0.0,0.0,0.25,0.0,0.375,0.0,-0.25,1.17,0.5074,1.05,0.4579,7.0,3.2186,True,orthorhombic,mmm,71,16.103,10.3931,0.3724
Fe6 Hf6 Si12,3,0.0,0.0,0.0,0.0,0.0,0.0,0.5,0.0,0.0,0.5,-0.5,0.6,0.2513,0.45,0.1949,3.0,1.2247,True,orthorhombic,mmm,71,14.0272,8.5976,0.5323
Co1 Ga5 U1,3,0.1429,0.0,0.0,0.0,0.0,0.0,0.0,0.0,0.1429,0.1429,3.2857,0.5,0.1564,0.45,0.1555,5.0,1.7496,True,tetragonal,4/mmm,123,17.2325,8.8869,0.6336
Al4 Ge12 Y8,3,0.0,0.0,0.0,0.0,0.0,0.0,0.5,0.0,0.0,0.3333,-0.5,0.79,0.3547,0.55,0.2593,2.0,0.6872,True,orthorhombic,mmm,62,21.3331,5.4839,0.2374
Al16 K16 Sb24,3,0.0,0.2857,0.0,0.0,0.0,0.0,0.4286,0.0,0.0,0.0,-0.1429,1.23,0.5098,0.95,0.384,2.0,0.833,True,monoclinic,2/m,14,33.1285,3.562,0.4345
Mn4 Na8 O10,3,0.0,0.3636,0.0,0.4545,0.0,0.0,0.0,0.0,0.0,0.1818,-0.1818,2.51,1.167,1.2,0.5491,2.0,0.7497,True,orthorhombic,mmm,70,12.7292,3.3423,0.5437
Cs2 Pr2 Te6 Zn2,4,0.0,0.1667,0.0,0.5,0.0,0.1667,0.5,0.0,0.1667,0.1667,-0.0,1.31,0.5192,1.25,0.4506,4.0,1.2583,True,orthorhombic,mmm,63,39.8284,5.0171,0.3754
K7 Nb1 O24 S6,4,0.0,0.1842,0.0,0.6316,0.0,0.0,0.0,0.0,0.0,0.0263,-1.2632,2.62,1.0128,1.6,0.6093,3.0,0.8748,True,trigonal,-3,148,17.1908,2.397,1.0
Mo6 Rb2 S6,3,0.0,0.1429,0.0,0.0,0.0,0.0,0.0,0.0,0.0,0.4286,1.0,1.76,0.5762,1.35,0.4454,2.0,0.9897,True,hexagonal,6/m,176,23.5229,4.7346,2.071
Ca2 Cu8 P4,3,0.0,0.0,0.1429,0.0,0.0,0.0,0.0,0.0,0.0,0.5714,0.5714,1.19,0.371,0.8,0.2503,1.0,0.4518,True,tetragonal,4/mmm,136,14.345,5.8906,0.5205
Ga9 K3,2,0.0,0.25,0.0,0.0,0.0,0.0,0.0,0.0,0.0,0.0,2.5,0.99,0.4287,0.9,0.3897,0.0,0.0,True,tetragonal,-42m,119,25.2161,4.0872,0.7284
Mg2 O6 Si2,3,0.0,0.0,0.2,0.6,0.0,0.0,0.2,0.0,0.0,0.0,-1.6,2.13,0.9181,0.9,0.3655,1.0,0.4899,True,orthorhombic,mmm,63,8.4088,3.9649,0.4037
Ca1 Cu2 O7 Sr2 Tl1,5,0.0,0.0,0.2308,0.5385,0.0,0.0,0.0,0.0,0.0,0.1538,-0.2308,2.49,1.0646,1.4,0.596,4.0,1.4226,True,tetragonal,4/mmm,123,13.5227,6.2229,0.3077
K6 Nd2 O16 P4,4,0.0,0.2143,0.0,0.5714,0.0,0.0714,0.0,0.0,0.0714,0.0,-1.1429,2.62,1.1199,1.6,0.6661,6.0,1.6036,True,monoclinic,2/m,11,14.9906,3.5722,0.5957
In4 O10 P2,3,0.0,0.0,0.0,0.625,0.0,0.0,0.0,0.0,0.0,0.0,-0.875,1.66,0.7469,0.95,0.4037,3.0,1.2686,True,triclinic,-1,2,13.06,5.4134,0.7676
Hf4 O8,2,0.0,0.0,0.0,0.6667,0.0,0.0,0.0,0.0,0.0,0.3333,0.0,2.14,1.0088,0.95,0.4478,4.0,1.8856,True,monoclinic,2/m,14,11.6885,9.9678,0.9655
Hf8 Sb16,2,0.0,0.0,0.0,0.0,0.0,0.0,0.6667,0.0,0.0,0.3333,-0.6667,0.75,0.3536,0.1,0.0471,1.0,0.4714,True,orthorhombic,mmm,58,24.5679,9.5079,0.2581
Fe4 Yb2,2,0.0,0.0,0.0,0.0,0.0,0.3333,0.0,0.0,0.3333,0.6667,2.3333,1.83,0.8627,0.35,0.165,4.0,1.8856,True,cubic,m-3m,227,15.1004,10.4369,1.0
Fe6 Li6 O24 P6,4,0.0,0.1429,0.0,0.5714,0.0,0.0,0.0,0.0,0.0,0.1429,-1.1429,2.46,0.9383,0.85,0.363,2.0,0.7284,True,trigonal,3m,159,11.1966,3.3424,0.7854
Ge6 Hf4 Na8 O24,4,0.0,0.1905,0.0,0.5714,0.0,0.0,0.1429,0.0,0.0,0.0952,-1.1429,2.51,1.0691,1.2,0.5009,4.0,1.2454,True,trigonal,-3m,167,14.1243,4.8082,1.0
Cu2 Ga1 Sr1,3,0.0,0.0,0.25,0.0,0.0,0.0,0.0,0.0,0.0,0.5,2.25,0.95,0.4001,0.7,0.2894,1.0,0.433,True,trigonal,-3m,166,21.205,5.5684,1.0
Li4 Mn4 O28 P8,4,0.0,0.0909,0.0,0.6364,0.0,0.0,0.0,0.0,0.0,0.0909,-1.5455,2.46,0.8782,0.85,0.3215,2.0,0.6428,True,monoclinic,2/m,14,11.4383,3.1123,0.7325
Ag3 Mg3 Y3,3,0.0,0.0,0.3333,0.0,0.0,0.0,0.0,0.0,0.0,0.6667,2.0,0.71,0.3156,0.3,0.1247,2.0,0.9428,True,hexagonal,-6m2,189,23.8228,5.1367,1.8928
In2 Lu4 Pd4,3,0.0,0.0,0.0,0.0,0.0,0.4,0.0,0.0,0.4,0.4,2.6,0.93,0.4163,0.35,0.1568,1.0,0.4899,True,tetragonal,4/mmm,127,21.2739,10.5779,0.4746
Ca2 Zn2,2,0.0,0.0,0.5,0.0,0.0,0.0,0.0,0.0,0.0,0.5,2.0,0.65,0.325,0.45,0.225,0.0,0.0,True,orthorhombic,mmm,63,26.7781,3.2707,0.7065
Mg1 P4 Rh6,3,0.0,0.0,0.0909,0.0,0.0,0.0,0.0,0.0,0.0,0.5455,0.7273,0.97,0.2718,0.5,0.1835,2.0,0.9959,True,hexagonal,-6m2,187,14.0968,8.1989,2.0087
O24 U8,2,0.25,0.0,0.0,0.75,0.0,0.0,0.0,0.0,0.25,0.0,0.0,2.06,0.892,1.15,0.498,7.0,3.0311,True,tetragonal,4/mmm,141,15.3762,7.7223,0.6207
Ni2 Si6 Sm2,3,0.0,0.0,0.0,0.0,0.0,0.2,0.6,0.0,0.2,0.2,-1.4,0.74,0.293,0.75,0.2915,5.0,1.9391,True,orthorhombic,mmm,65,16.9231,5.7561,0.3686
B24 Ca12 S48,3,0.0,0.0,0.1429,0.0,0.0,0.0,0.2857,0.0,0.0,0.0,0.0,1.58,0.5436,0.95,0.3046,2.0,0.6389,True,cubic,m-3,205,16.9478,2.6589,1.0
Cu2 Rh4 S8,3,0.0,0.0,0.0,0.0,0.0,0.0,0.0,0.0,0.0,0.4286,0.0,0.68,0.2415,0.35,0.1732,2.0,0.8806,True,cubic,m-3m,227,17.231,5.474,1.0
P4 U2,2,0.3333,0.0,0.0,0.0,0.0,0.0,0.0,0.0,0.3333,0.0,0.0,0.81,0.3818,0.75,0.3536,6.0,2.8284,True,tetragonal,4/mmm,129,18.3826,9.0325,0.4892
Ni4 Si4 U3,3,0.2727,0.0,0.0,0.0,0.0,0.0,0.3636,0.0,0.2727,0.3636,0.9091,0.53,0.2339,0.65,0.257,6.0,2.4863,True,orthorhombic,mmm,71,16.1793,9.9014,0.3185
Au2 La1 Si2,3,0.0,0.0,0.0,0.0,0.0,0.2,0.4,0.0,0.2,0.6,0.2,1.44,0.5316,0.85,0.3108,5.0,1.9391,True,tetragonal,4/mmm,139,19.8954,9.8322,0.7272
Co2 Cu24 La2,3,0.0,0.0,0.0,0.0,0.0,0.0714,0.0,0.0,0.0714,1.0,2.0714,0.8,0.2057,0.6,0.1545,4.0,1.0302,True,cubic,m-3m,226,13.6849,8.3239,1.0
B3 Ca3 O15 P3,4,0.0,0.0,0.125,0.625,0.0,0.0,0.125,0.0,0.0,0.0,-1.0,2.44,0.883,1.2,0.3929,2.0,0.696,True,trigonal,32,152,11.0153,3.05,0.9844
Rh10 Si6,2,0.0,0.0,0.0,0.0,0.0,0.0,0.375,0.0,0.0,0.625,0.375,0.38,0.184,0.25,0.121,2.0,0.9682,True,orthorhombic,mmm,55,13.5935,9.1432,0.3795
Al8 Cu4 Np1,3,0.0769,0.0,0.0,0.0,0.0,0.0,0.0,0.0,0.0769,0.3077,2.8462,0.54,0.1606,0.5,0.1323,6.0,1.5765,True,tetragonal,4/mmm,139,15.1848,5.9476,0.755
Ca2 Ga2 N2,3,0.0,0.0,0.3333,0.0,0.0,0.0,0.0,0.0,0.0,0.0,0.6667,2.04,0.8387,1.15,0.4708,2.0,0.9428,True,tetragonal,4/mmm,129,16.3141,4.2006,0.4761
Ge6 Nd8 Rh8,3,0.0,0.0,0.0,0.0,0.0,0.3636,0.2727,0.0,0.3636,0.3636,1.0909,1.14,0.5041,0.6,0.2641,4.0,1.6959,True,monoclinic,2/m,15,20.9509,8.6933,0.5181
Mn4 O12 Sr4,3,0.0,0.0,0.2,0.6,0.0,0.0,0.0,0.0,0.0,0.2,-0.4,2.49,1.0895,1.4,0.5713,3.0,1.2649,True,hexagonal,6/mmm,194,12.3122,5.14,0.5966
Bi8 Li8 O24,3,0.0,0.2,0.0,0.6,0.0,0.0,0.0,0.0,0.0,0.0,-0.4,2.46,1.0057,1.0,0.4556,4.0,1.6,True,orthorhombic,mmm,56,12.4346,7.0488,0.4602
Ce2 K4 O30 Ta10,4,0.0,0.087,0.0,0.6522,0.0,0.0435,0.0,0.0,0.0435,0.2174,-0.0,2.62,1.0421,1.6,0.5518,6.0,1.9209,True,tetragonal,4/mmm,127,13.8723,7.0939,0.311
Gd2 Ge2 Ti2,3,0.0,0.0,0.0,0.0,0.0,0.3333,0.3333,0.0,0.3333,0.3333,1.0,0.81,0.3321,0.55,0.2321,4.0,1.8856,True,tetragonal,4/mmm,139,21.757,7.0663,0.4873
S24 Sn10 Tl8,3,0.0,0.0,0.0,0.0,0.0,0.0,0.0,0.0,0.0,0.0,-1.9048,0.96,0.3973,0.9,0.3534,3.0,1.2527,True,triclinic,-1,2,27.2904,5.2035,0.4321
Cu8 O20 Tm8,3,0.0,0.0,0.0,0.5556,0.0,0.2222,0.0,0.0,0.2222,0.2222,-0.0,2.19,0.9517,1.15,0.4905,6.0,2.3934,True,orthorhombic,mm2,33,12.9247,7.7795,0.2782
Ga2 K4 Na2 P4,4,0.0,0.5,0.0,0.0,0.0,0.0,0.0,0.0,0.0,0.0,-0.0,1.37,0.6176,1.2,0.5113,1.0,0.5,True,monoclinic,2/m,12,26.1264,2.4666,0.7434
Sb10 Ti2 U6,3,0.3333,0.0,0.0,0.0,0.0,0.0,0.5556,0.0,0.3333,0.1111,0.7778,0.67,0.3164,0.35,0.1461,5.0,1.9876,True,hexagonal,6/mmm,193,24.6038,10.2793,1.4919
As8 Ge8 Se8,3,0.0,0.0,0.0,0.3333,0.0,0.0,0.6667,0.0,0.0,0.0,-3.0,0.54,0.2254,0.1,0.0471,0.0,0.0,True,orthorhombic,mmm,52,28.2628,4.4363,0.4049
Au2 Li4 Sn4,3,0.0,0.4,0.0,0.0,0.0,0.0,0.0,0.0,0.0,0.2,-0.6,1.56,0.6126,0.1,0.04,4.0,1.6733,True,tetragonal,4/mmm,141,21.3833,6.9621,0.4415
Rh4 S12 U4,3,0.2,0.0,0.0,0.0,0.0,0.0,0.0,0.0,0.2,0.2,0.6,1.2,0.4648,0.75,0.2977,6.0,2.3324,True,orthorhombic,mmm,62,18.2888,7.9378,0.7176
Cu4 Mn4 P4,3,0.0,0.0,0.0,0.0,0.0,0.0,0.0,0.0,0.0,0.6667,0.3333,0.64,0.2617,0.4,0.178,1.0,0.4714,True,orthorhombic,mmm,62,12.555,6.5892,0.483
B14 Cl2 Co6 O26,4,0.0,0.0,0.0,0.5417,0.0417,0.0,0.2917,0.0,0.0,0.125,0.0,1.56,0.7077,0.75,0.2482,2.0,0.6757,True,trigonal,3m,161,9.4958,3.6134,1.0
Cd2 Pr4 Se8,3,0.0,0.0,0.0,0.5714,0.0,0.2857,0.0,0.0,0.2857,0.1429,0.0,1.42,0.6343,0.7,0.311,4.0,1.7496,True,tetragonal,-42m,122,26.1889,6.4318,1.0
Cu4 Si6 Zr3,3,0.0,0.0,0.0,0.0,0.0,0.0,0.4615,0.0,0.0,0.5385,-0.3077,0.57,0.2402,0.45,0.1824,2.0,0.7994,True,tetragonal,4/mmm,139,15.153,5.8701,0.2587
Cr8 O24 P6,3,0.0,0.0,0.0,0.6316,0.0,0.0,0.0,0.0,0.0,0.2105,-1.1053,1.78,0.7658,0.8,0.3261,2.0,0.8154,True,monoclinic,2/m,15,12.479,3.452,1.3065
Pt3 Tb1,2,0.0,0.0,0.0,0.0,0.0,0.25,0.0,0.0,0.25,0.75,2.25,2.28,0.9873,0.4,0.1732,2.0,0.866,True,cubic,m-3m,221,17.6342,17.519,1.0
Ho1 Pd1,2,0.0,0.0,0.0,0.0,0.0,0.5,0.0,0.0,0.5,0.5,2.5,0.97,0.485,0.35,0.175,3.0,1.5,True,cubic,m-3m,221,21.3813,10.537,1.0
Ho1 K1 S2,3,0.0,0.25,0.0,0.0,0.0,0.25,0.0,0.0,0.25,0.0,0.0,1.76,0.7909,1.2,0.5128,5.0,2.0616,True,trigonal,-3m,166,25.9676,4.287,1.0
O24 Pb4 V10,3,0.0,0.0,0.0,0.6316,0.0,0.0,0.0,0.0,0.0,0.2632,0.2632,1.81,0.8,1.2,0.4414,4.0,1.3562,True,monoclinic,2/m,13,14.1802,5.3072,0.4435
Al8 Ce8 Rh8,3,0.0,0.0,0.0,0.0,0.0,0.3333,0.0,0.0,0.3333,0.3333,3.0,1.16,0.4755,0.6,0.2625,5.0,2.0548,True,orthorhombic,mmm,62,19.837,7.5339,0.2652
Bi12 Ca12 O30,3,0.0,0.0,0.2222,0.5556,0.0,0.0,0.0,0.0,0.0,0.0,-0.0,2.44,1.0175,1.2,0.5506,4.0,1.633,True,triclinic,-1,2,17.1973,6.2024,0.9644
Ga6 Hf6 Pd6,3,0.0,0.0,0.0,0.0,0.0,0.0,0.0,0.0,0.0,0.6667,3.0,0.9,0.3685,0.25,0.1027,2.0,0.8165,True,hexagonal,-6m2,190,17.4055,11.2777,1.0377
Ba3 Co3 O6,3,0.0,0.0,0.25,0.5,0.0,0.0,0.0,0.0,0.0,0.25,0.0,2.55,1.0855,1.55,0.6408,4.0,1.6583,True,trigonal,32,152,17.4621,5.4265,0.8764
Al8 F48 Li12 Na12,4,0.0,0.3,0.0,0.0,0.6,0.0,0.0,0.0,0.0,0.0,0.0,3.05,1.4132,1.3,0.5244,1.0,0.433,True,cubic,m-3m,230,11.6838,2.6416,1.0
Ba4 Ca4 Sn4,3,0.0,0.0,0.6667,0.0,0.0,0.0,0.0,0.0,0.0,0.0,0.0,1.07,0.4806,0.7,0.2858,2.0,0.8165,True,orthorhombic,mmm,62,38.6541,4.2403,0.5448
Ni1 O6 Sr2 W1,4,0.0,0.0,0.2,0.6,0.0,0.0,0.0,0.0,0.0,0.2,-0.2,2.49,1.0073,1.4,0.5653,4.0,1.5362,True,tetragonal,4/m,87,12.7684,6.6816,0.9947
Ba2 O18 Si8,3,0.0,0.0,0.0714,0.6429,0.0,0.0,0.2857,0.0,0.0,0.0,-2.2857,2.55,0.8689,1.55,0.4228,4.0,1.0498,True,hexagonal,-6m2,188,12.6793,3.6826,0.6948
Lu8 O28 Si8,3,0.0,0.0,0.0,0.6364,0.0,0.1818,0.1818,0.0,0.1818,0.0,-1.4545,2.17,0.9123,1.15,0.4426,4.0,1.5048,True,tetragonal,422,92,11.8281,6.6124,0.5481
B16 Mn4 Sm4,3,0.0,0.0,0.0,0.0,0.0,0.1667,0.6667,0.0,0.1667,0.1667,2.8333,0.87,0.3388,1.0,0.3877,6.0,2.2111,True,orthorhombic,mmm,55,9.9977,6.8802,0.3003
Ta30,1,0.0,0.0,0.0,0.0,0.0,0.0,0.0,0.0,0.0,1.0,5.0,0.0,0.0,0.0,0.0,0.0,0.0,True,tetragonal,-42m,113,18.7161,16.0541,0.5218
Ni8 Sn4 Sr2,3,0.0,0.0,0.1429,0.0,0.0,0.0,0.0,0.0,0.0,0.5714,0.2857,1.01,0.3425,0.65,0.2202,1.0,0.4949,True,tetragonal,4/mmm,140,17.3349,7.6608,1.0