formula,numberOfSpecies,fracActinoid,fracAlkali,fracAlkaline,fracChalcogen,fracHalogen,fracLanthanoid,fracMetalloid,fracNobleGas,fracRareEarth,fracTransitionMetal,electronsPerAtom,electronegativityRange,electronegativityStd,radiiRange,radiiStd,rowRange,rowStd,ordered,crystalSystem,pointGroup,spaceGroupNumber,volumePerSite,density,c_a
Cd2 Cs2 Sm2 Te6,4,0.0,0.1667,0.0,0.5,0.0,0.1667,0.5,0.0,0.1667,0.1667,-0.0,1.31,0.5129,1.2,0.433,3.0,1.1055,True,orthorhombic,mmm,63,40.1837,5.3616,0.3827
Al40 U2 V4,3,0.0435,0.0,0.0,0.0,0.0,0.0,0.0,0.0,0.0435,0.087,3.3043,0.25,0.0476,0.5,0.104,6.0,1.2374,True,cubic,m-3m,227,16.3791,3.8769,1.0
Co2 Ge2 Tm1,3,0.0,0.0,0.0,0.0,0.0,0.2,0.4,0.0,0.2,0.4,-0.2,0.76,0.284,0.5,0.1855,4.0,1.6,True,tetragonal,4/mmm,139,15.6092,9.1931,0.6843
K4 Mn2 O14 V4,4,0.0,0.1667,0.0,0.5833,0.0,0.0,0.0,0.0,0.0,0.25,-0.0,2.62,1.0887,1.6,0.6031,2.0,0.986,True,tetragonal,-42m,113,18.1533,2.6452,0.6478
Ga2 K12 Na6 Sb8,4,0.0,0.6429,0.0,0.0,0.0,0.0,0.2857,0.0,0.0,0.0,0.0,1.23,0.5533,0.9,0.3466,2.0,0.7035,True,hexagonal,6/mmm,194,34.7338,2.9378,0.9708
Cl12 Mg4 Rb4,3,0.0,0.2,0.2,0.0,0.6,0.0,0.0,0.0,0.0,0.0,0.0,2.34,1.038,1.35,0.5269,2.0,0.8,True,hexagonal,6/mmm,194,26.8937,2.669,0.6005
Rh8 Sn26 Yb6,3,0.0,0.0,0.0,0.0,0.0,0.15,0.0,0.0,0.15,0.2,-1.55,2.28,0.7374,0.4,0.122,3.0,1.0712,True,cubic,m-3m,223,23.4993,8.741,1.0
Cl2 H4 Mg1 O2,4,0.0,0.0,0.1111,0.2222,0.2222,0.0,0.0,0.0,0.0,0.0,-0.8889,2.13,0.6946,1.25,0.423,2.0,0.8749,True,monoclinic,2/m,12,13.5662,1.7849,0.6333
B2 C4 N2,3,0.0,0.0,0.0,0.0,0.0,0.0,0.25,0.0,0.0,0.0,-2.0,1.0,0.3536,0.2,0.075,0.0,0.0,True,orthorhombic,222,17,5.9301,3.419,1.0016
Nd2 O8 Ta2,3,0.0,0.0,0.0,0.6667,0.0,0.1667,0.0,0.0,0.1667,0.1667,0.0,2.3,1.0048,1.25,0.5083,6.0,2.4267,True,monoclinic,2/m,15,13.5859,7.9281,0.7665
Ni8 Si4 Zn12,3,0.0,0.0,0.0,0.0,0.0,0.0,0.1667,0.0,0.0,0.8333,1.0,0.26,0.1284,0.25,0.0932,1.0,0.3727,True,cubic,m-3m,227,12.8515,7.3585,1.0
Ag2 B2 F10,3,0.0,0.0,0.0,0.0,0.7143,0.0,0.1429,0.0,0.0,0.1429,-0.1429,2.05,0.9017,1.1,0.384,3.0,1.0498,True,tetragonal,4/m,85,13.72,3.6944,0.6017
Dy3 In1,2,0.0,0.0,0.0,0.0,0.0,0.75,0.0,0.0,0.75,0.0,3.0,0.56,0.2425,0.2,0.0866,3.0,1.299,True,tetragonal,4/mmm,123,28.3916,8.8069,0.9951
Ca4 Cd8,2,0.0,0.0,0.3333,0.0,0.0,0.0,0.0,0.0,0.0,0.6667,2.0,0.69,0.3253,0.25,0.1179,1.0,0.4714,True,hexagonal,6/mmm,194,25.9112,5.6588,0.6341
F8 Na16 O24 P8,4,0.0,0.2857,0.0,0.4286,0.1429,0.0,0.0,0.0,0.0,0.0,-1.1429,3.05,1.181,1.3,0.5357,1.0,0.4949,True,orthorhombic,222,19,13.2807,2.5712,0.2862
As4 H60 Na8 O44,4,0.0,0.069,0.0,0.3793,0.0,0.0,0.0345,0.0,0.0,0.0,-1.3103,2.51,0.7406,1.55,0.4084,3.0,0.7617,True,monoclinic,2/m,14,9.5717,1.8665,0.8607
Ag2 Cu2 S2,3,0.0,0.0,0.0,0.0,0.0,0.0,0.0,0.0,0.0,0.6667,0.3333,0.68,0.3137,0.6,0.2461,2.0,0.8165,True,orthorhombic,mm2,36,19.0184,5.9221,0.4658
Be6 H24 Li12,3,0.0,0.2857,0.1429,0.0,0.0,0.0,0.0,0.0,0.0,0.0,0.0,1.22,0.5382,1.2,0.5421,1.0,0.4949,True,triclinic,1,1,9.5253,0.6706,0.3799
Bi1 Np1,2,0.5,0.0,0.0,0.0,0.0,0.0,0.0,0.0,0.5,0.0,4.0,0.66,0.33,0.15,0.075,3.0,1.5,True,cubic,m-3m,225,32.3094,11.4606,1.0
Al4 Ni2 Sc2,3,0.0,0.0,0.0,0.0,0.0,0.0,0.0,0.0,0.0,0.5,2.75,0.55,0.1949,0.35,0.1431,1.0,0.5,True,orthorhombic,mmm,63,15.9994,4.0896,0.6
As4 Fe4 O16,3,0.0,0.0,0.0,0.6667,0.0,0.0,0.1667,0.0,0.0,0.1667,-1.5,1.61,0.684,0.8,0.3263,2.0,0.9428,True,monoclinic,2/m,14,13.1907,4.0864,0.6196
Lu4 S6,2,0.0,0.0,0.0,0.0,0.0,0.4,0.0,0.0,0.4,0.0,0.0,1.31,0.6418,0.75,0.3674,3.0,1.4697,True,trigonal,-3m,167,23.9011,6.199,1.0
Cs2 Mo12 Se14,3,0.0,0.0714,0.0,0.5,0.0,0.0,0.0,0.0,0.0,0.4286,0.7857,1.76,0.448,1.45,0.3672,2.0,0.6227,True,trigonal,-3,148,24.9455,5.997,1.0
Co2 Ga1 Ti1,3,0.0,0.0,0.0,0.0,0.0,0.0,0.0,0.0,0.0,0.75,2.75,0.34,0.1401,0.1,0.0354,0.0,0.0,True,cubic,m-3m,225,12.4283,7.8648,1.0
Mn4 O12 Tb4,3,0.0,0.0,0.0,0.6,0.0,0.2,0.0,0.0,0.2,0.2,-0.2,3.44,1.3946,1.15,0.4903,6.0,2.3324,True,orthorhombic,mmm,62,11.812,7.3625,0.7115
C2 Fe6,2,0.0,0.0,0.0,0.0,0.0,0.0,0.0,0.0,0.0,0.75,0.5,0.72,0.3118,0.7,0.3031,2.0,0.866,True,hexagonal,622,182,10.1635,7.3336,1.079
K2 Mn1 O6 Se2,4,0.0,0.1818,0.0,0.7273,0.0,0.0,0.0,0.0,0.0,0.0909,-1.0909,2.62,1.0299,1.6,0.6031,2.0,0.9959,True,trigonal,-3m,166,16.3179,3.5806,1.0
Pt4 Y12,2,0.0,0.0,0.0,0.0,0.0,0.0,0.0,0.0,0.0,1.0,2.75,1.06,0.459,0.45,0.1949,1.0,0.433,True,orthorhombic,mmm,62,27.9144,6.8678,0.6771
Al1 B2,2,0.0,0.0,0.0,0.0,0.0,0.0,0.6667,0.0,0.0,0.0,3.0,0.43,0.2027,0.4,0.1886,1.0,0.4714,True,hexagonal,6/mmm,191,8.5469,3.1477,0.9183
Ce4 F4 Na4 Nb4 O24 Ti4,6,0.0,0.0909,0.0,0.5455,0.0909,0.0909,0.0,0.0,0.0909,0.1818,0.0,3.05,1.0916,1.35,0.5153,6.0,1.8318,True,monoclinic,2,3,12.9763,4.8729,0.5755
Cl2 F10 N2 Re2,4,0.0,0.0,0.0,0.0,0.75,0.0,0.0,0.0,0.0,0.125,-0.625,2.08,0.7106,0.85,0.2987,4.0,1.317,True,monoclinic,2/m,11,17.8564,3.8437,0.5925
K1 S2 Sm1,3,0.0,0.25,0.0,0.0,0.0,0.25,0.0,0.0,0.25,0.0,0.0,1.76,0.8021,1.2,0.5272,5.0,2.0616,True,trigonal,-3m,166,27.4874,3.8299,1.0
F2 O2 Tb2,3,0.0,0.0,0.0,0.3333,0.3333,0.3333,0.0,0.0,0.3333,0.0,0.0,3.98,1.7628,1.25,0.5672,6.0,2.8284,True,trigonal,-3m,166,13.6541,7.8613,1.0
In2 P6,2,0.0,0.0,0.0,0.0,0.0,0.0,0.0,0.0,0.0,0.0,-1.5,0.41,0.1775,0.55,0.2382,2.0,0.866,True,trigonal,-3m,166,20.7474,4.1567,1.0
Ba4 Na1 O12 Sb3,4,0.0,0.05,0.2,0.6,0.0,0.0,0.15,0.0,0.0,0.0,-1.2,2.55,1.0922,1.55,0.6429,4.0,1.7059,True,cubic,m-3m,229,14.8873,6.2997,1.0
B14 Cr2 Ho6,3,0.0,0.0,0.0,0.0,0.0,0.2727,0.6364,0.0,0.2727,0.0909,3.0,0.81,0.3561,0.9,0.4014,6.0,2.6222,True,orthorhombic,mmm,63,11.4441,8.2109,0.3677
Li4 O16 Rb4 S4,4,0.0,0.2857,0.0,0.5714,0.0,0.0,0.0,0.0,0.0,0.0,-1.1429,2.62,1.1094,1.75,0.6164,3.0,1.0498,True,monoclinic,2/m,14,15.803,2.8292,0.5791
Ba4 Co8 Ho4 O22,4,0.0,0.0,0.1053,0.5789,0.0,0.1053,0.0,0.0,0.1053,0.2105,-0.2105,2.55,1.0114,1.55,0.5613,6.0,2.0357,True,orthorhombic,mmm,51,12.3224,7.2077,0.9621
In4 Ni2 Yb2,3,0.0,0.0,0.0,0.0,0.0,0.25,0.0,0.0,0.25,0.25,2.75,1.91,0.7913,0.4,0.1414,4.0,1.5,True,orthorhombic,mmm,63,21.293,8.995,0.5651
Li4 Ni4 O36 P12,4,0.0,0.0714,0.0,0.6429,0.0,0.0,0.0,0.0,0.0,0.0714,-1.7143,2.46,0.7929,0.85,0.2934,2.0,0.6103,True,orthorhombic,mmm,57,14.2934,2.5106,0.3914
K2 La2 Na2 Nb2 O10,5,0.0,0.2222,0.0,0.5556,0.0,0.1111,0.0,0.0,0.1111,0.2222,0.0,2.62,1.1736,1.6,0.647,6.0,1.9437,True,tetragonal,4/mmm,129,15.9731,4.3189,0.6949
Er20 Si16,2,0.0,0.0,0.0,0.0,0.0,0.5556,0.4444,0.0,0.5556,0.0,-0.1111,0.66,0.328,0.65,0.323,5.0,2.4845,True,monoclinic,2/m,14,22.6031,7.7435,0.5133
H4 Ni6 O20 Se6,4,0.0,0.0,0.0,0.7222,0.0,0.0,0.0,0.0,0.0,0.1667,-1.2222,1.53,0.6326,1.1,0.3552,3.0,1.0657,True,triclinic,-1,2,12.6938,4.1786,0.9516
Ce1 Rb1 S2,3,0.0,0.25,0.0,0.0,0.0,0.25,0.0,0.0,0.25,0.0,0.0,1.76,0.812,1.35,0.5777,5.0,2.0463,True,trigonal,-3m,166,30.0742,3.9991,1.0
In4 S8 Zn2,3,0.0,0.0,0.0,0.0,0.0,0.0,0.0,0.0,0.0,0.1429,0.0,0.93,0.4193,0.55,0.247,2.0,0.8806,True,cubic,m-3m,227,22.1983,4.5236,1.0
F16 Sb4 Tl4,3,0.0,0.0,0.0,0.0,0.6667,0.0,0.1667,0.0,0.0,0.0,-1.0,2.36,1.0188,1.4,0.5689,4.0,1.675,True,monoclinic,2/m,14,19.0949,5.8285,0.8379
Cd8 Ge4 O16,3,0.0,0.0,0.0,0.5714,0.0,0.0,0.1429,0.0,0.0,0.2857,-1.1429,1.75,0.8192,0.95,0.4307,3.0,1.3553,True,orthorhombic,mmm,62,14.4207,5.946,0.4636
Na2 O8 Pd6,3,0.0,0.125,0.0,0.5,0.0,0.0,0.0,0.0,0.0,0.375,-0.125,2.51,0.8704,1.2,0.4664,3.0,1.3919,True,cubic,m-3m,223,11.929,7.0688,1.0
F12 Ga2 Li2 Rb4,4,0.0,0.3,0.0,0.0,0.6,0.0,0.0,0.0,0.0,0.0,0.0,3.16,1.431,1.85,0.736,3.0,1.249,True,trigonal,-3m,166,14.9214,4.024,1.0
C2 Fe2 Li2 O14 P2,5,0.0,0.0909,0.0,0.6364,0.0,0.0,0.0,0.0,0.0,0.0909,-1.6364,2.46,0.8253,0.85,0.318,2.0,0.6166,True,monoclinic,2,4,13.1657,2.4969,0.6024
Br6 K2 Te1,3,0.0,0.2222,0.0,0.1111,0.6667,0.0,0.1111,0.0,0.0,0.0,-0.6667,2.14,0.8796,1.05,0.4287,1.0,0.3143,True,cubic,m-3m,225,36.3038,3.4824,1.0
Er7 Ni2 Te2,3,0.0,0.0,0.0,0.1818,0.0,0.6364,0.1818,0.0,0.6364,0.1818,1.9091,0.86,0.3724,0.4,0.181,4.0,1.7104,True,orthorhombic,mm2,44,25.6364,9.0882,0.4124
N1 Th1,2,0.5,0.0,0.0,0.0,0.0,0.0,0.0,0.0,0.5,0.0,0.5,1.74,0.87,1.15,0.575,7.0,3.5,True,cubic,m-3m,225,17.3321,11.7864,1.0
F18 Rb6 Zn6,3,0.0,0.2,0.0,0.0,0.6,0.0,0.0,0.0,0.0,0.2,0.0,3.16,1.3701,1.85,0.7331,3.0,1.2649,True,hexagonal,6/mmm,194,15.3756,4.49,0.4087
Ta1,1,0.0,0.0,0.0,0.0,0.0,0.0,0.0,0.0,0.0,1.0,5.0,0.0,0.0,0.0,0.0,0.0,0.0,True,cubic,m-3m,225,18.8798,15.915,1.0
C2 Li4 O14 P2 W2,5,0.0,0.1667,0.0,0.5833,0.0,0.0,0.0,0.0,0.0,0.0833,-1.25,2.46,0.9175,0.85,0.3479,4.0,1.1149,True,monoclinic,2/m,11,12.2262,3.992,0.567
Co2 O2,2,0.0,0.0,0.0,0.5,0.0,0.0,0.0,0.0,0.0,0.5,0.0,1.56,0.78,0.75,0.375,2.0,1.0,True,trigonal,-3m,166,9.7922,6.3535,1.0
B4 Mg4 O10,3,0.0,0.0,0.2222,0.5556,0.0,0.0,0.2222,0.0,0.0,0.0,-0.0,2.13,0.9102,0.9,0.3586,1.0,0.4157,True,triclinic,-1,2,9.8319,2.8192,0.3393
Ni12 P7 Sc2,3,0.0,0.0,0.0,0.0,0.0,0.0,0.0,0.0,0.0,0.6667,0.4286,0.83,0.2308,0.6,0.1954,1.0,0.4714,True,hexagonal,-6,174,11.9518,6.6891,2.4976
Al3 Ce3 Pd3,3,0.0,0.0,0.0,0.0,0.0,0.3333,0.0,0.0,0.3333,0.3333,2.6667,1.08,0.4415,0.6,0.255,5.0,2.0548,True,hexagonal,-6m2,189,20.75,7.2962,1.7186
Cu20 Sn4 Th4,3,0.1429,0.0,0.0,0.0,0.0,0.0,0.0,0.0,0.1429,0.7143,1.4286,0.66,0.2145,0.45,0.1555,5.0,1.7261,True,orthorhombic,mmm,62,16.1601,9.8128,0.4811
Br56 Cd4 W24,3,0.0,0.0,0.0,0.0,0.6667,0.0,0.0,0.0,0.0,0.3333,0.5714,1.27,0.3548,0.4,0.1151,2.0,0.8985,True,cubic,m-3,201,30.6723,6.0173,1.0
H2 Ni1 O2,3,0.0,0.0,0.0,0.4,0.0,0.0,0.0,0.0,0.0,0.2,-0.8,1.53,0.6633,1.1,0.4017,3.0,1.0954,True,trigonal,-3m,164,7.9665,3.8648,0.6869
Mo4 O24 P6,3,0.0,0.0,0.0,0.7059,0.0,0.0,0.0,0.0,0.0,0.1176,-1.4706,1.28,0.5751,0.85,0.2901,3.0,0.9772,True,triclinic,1,1,14.6822,3.172,0.9982
Ce3 Ga3 Ni3,3,0.0,0.0,0.0,0.0,0.0,0.3333,0.0,0.0,0.3333,0.3333,2.6667,0.79,0.3512,0.55,0.2483,4.0,1.8856,True,hexagonal,-6m2,189,18.2739,8.1338,1.7256
Se3,1,0.0,0.0,0.0,1.0,0.0,0.0,0.0,0.0,0.0,0.0,-2.0,0.0,0.0,0.0,0.0,0.0,0.0,True,trigonal,32,152,29.7763,4.4034,0.895
Ag6 Li2 O4,3,0.0,0.1667,0.0,0.3333,0.0,0.0,0.0,0.0,0.0,0.5,0.0,2.46,0.8896,1.0,0.4568,3.0,1.5,True,orthorhombic,mmm,72,14.7106,6.8207,0.8804
Cd4 Cl12 K4,3,0.0,0.2,0.0,0.0,0.6,0.0,0.0,0.0,0.0,0.2,0.0,2.34,0.973,1.2,0.4754,2.0,0.8,True,orthorhombic,mmm,62,27.3413,3.1323,0.273
As4 Ta5,2,0.0,0.0,0.0,0.0,0.0,0.0,0.4444,0.0,0.0,0.5556,1.4444,0.68,0.3379,0.3,0.1491,2.0,0.9938,True,tetragonal,4/m,87,18.7861,11.8291,0.4788
Al4 Er2 Ni2,3,0.0,0.0,0.0,0.0,0.0,0.25,0.0,0.0,0.25,0.25,2.75,0.67,0.2375,0.5,0.2062,5.0,2.0616,True,orthorhombic,mmm,63,17.4581,6.6561,0.5916
Cl8 Nd4,2,0.0,0.0,0.0,0.0,0.6667,0.3333,0.0,0.0,0.3333,0.0,0.3333,2.02,0.9522,0.85,0.4007,5.0,2.357,True,orthorhombic,mmm,62,26.5338,4.4881,0.411
Ba2 N14 Si8 Yb2,4,0.0,0.0,0.0769,0.0,0.0,0.0769,0.3077,0.0,0.0769,0.0,-2.4615,3.04,0.9507,1.5,0.4625,6.0,1.7742,True,hexagonal,6mm,186,12.4379,5.348,0.6174
Er10 Sb6,2,0.0,0.0,0.0,0.0,0.0,0.625,0.375,0.0,0.625,0.0,0.75,0.81,0.3921,0.3,0.1452,3.0,1.4524,True,hexagonal,6/mmm,193,26.8107,9.3025,1.4244
Ba1 Co2 O8 P2,4,0.0,0.0,0.0769,0.6154,0.0,0.0,0.0,0.0,0.0,0.1538,-1.2308,2.55,0.8485,1.55,0.4563,4.0,1.1867,True,trigonal,-3,148,12.6416,4.4978,1.0
Au20 F84 Pr8,3,0.0,0.0,0.0,0.0,0.75,0.0714,0.0,0.0,0.0714,0.1786,0.0,2.85,0.8592,1.35,0.4445,6.0,2.0304,True,tetragonal,422,92,17.0137,5.8059,0.3207
Ba12 N12 Ni12,3,0.0,0.0,0.3333,0.0,0.0,0.0,0.0,0.0,0.0,0.3333,0.3333,2.15,0.8781,1.5,0.6128,4.0,1.633,True,orthorhombic,mmm,62,20.2739,5.7341,0.3953
O6 Re1 Sr2 Tm1,4,0.0,0.0,0.2,0.6,0.0,0.1,0.0,0.0,0.1,0.1,-0.1,2.49,1.0946,1.4,0.5997,6.0,2.1071,True,cubic,m-3m,225,14.2143,7.3175,1.0
Ca8 Ga16 Se32,3,0.0,0.0,0.1429,0.5714,0.0,0.0,0.0,0.0,0.0,0.0,0.0,1.55,0.5588,0.65,0.2199,0.0,0.0,True,orthorhombic,mmm,70,26.1062,4.5012,0.9967
Pd2 Sn2 U2,3,0.3333,0.0,0.0,0.0,0.0,0.0,0.0,0.0,0.3333,0.3333,1.3333,0.82,0.3442,0.35,0.1546,4.0,1.8856,True,orthorhombic,mm2,36,20.8634,12.2878,0.8567
Cd1 N3 O6 Tl1,4,0.0,0.0,0.0,0.5455,0.0,0.0,0.0,0.0,0.0,0.0909,-1.6364,1.82,0.6596,1.3,0.4345,4.0,1.3667,True,cubic,m-3,200,19.7354,3.4789,1.0
Au2 O4 Sc2,3,0.0,0.0,0.0,0.5,0.0,0.0,0.0,0.0,0.0,0.5,0.5,2.08,0.8539,1.0,0.4463,4.0,1.6583,True,hexagonal,6/mmm,194,14.2339,7.989,0.2656
Hg2 O6 Ti2,3,0.0,0.0,0.0,0.6,0.0,0.0,0.0,0.0,0.0,0.4,-0.2,1.9,0.831,0.9,0.4176,4.0,1.6,True,trigonal,-3m,167,11.8344,8.3194,1.0
Ge16 Sc8 V12,3,0.0,0.0,0.0,0.0,0.0,0.0,0.4444,0.0,0.0,0.5556,0.5556,0.65,0.2618,0.35,0.1349,0.0,0.0,True,orthorhombic,mmm,62,16.0095,6.146,0.5187
F14 I2,2,0.0,0.0,0.0,0.0,1.0,0.0,0.0,0.0,0.0,0.0,-1.0,1.32,0.4365,0.9,0.2976,3.0,0.9922,True,orthorhombic,mm2,41,16.5229,3.2649,0.6239
O24 P8 Sb2,3,0.0,0.0,0.0,0.7059,0.0,0.0,0.0588,0.0,0.0,0.0,-2.2941,1.39,0.5831,0.85,0.2437,3.0,0.7715,True,triclinic,-1,2,12.8111,3.3369,0.8064
As8 Ga2 Na6 Sr6,4,0.0,0.2727,0.2727,0.0,0.0,0.0,0.3636,0.0,0.0,0.0,0.0,1.25,0.5891,0.85,0.3683,2.0,0.7385,True,hexagonal,6mm,186,28.1089,3.766,1.275
Ca2 Na2 O8 V2,4,0.0,0.1429,0.1429,0.5714,0.0,0.0,0.0,0.0,0.0,0.1429,-0.0,2.51,1.134,1.2,0.5379,2.0,0.8806,True,orthorhombic,mmm,63,14.487,2.9148,0.7742
O8 P2 Pb3,3,0.0,0.0,0.0,0.6154,0.0,0.0,0.0,0.0,0.0,0.0,-1.2308,1.25,0.5689,1.2,0.4923,4.0,1.639,True,trigonal,-3m,166,14.1151,7.344,1.0
C12 Y8,2,0.0,0.0,0.0,0.0,0.0,0.0,0.0,0.0,0.0,0.4,-1.2,1.33,0.6516,1.1,0.5389,3.0,1.4697,True,cubic,-43m,220,14.1112,5.0328,1.0
Co4 Na8 O28 P8,4,0.0,0.1667,0.0,0.5833,0.0,0.0,0.0,0.0,0.0,0.0833,-1.3333,2.51,0.9699,1.2,0.453,2.0,0.6455,True,tetragonal,4/mmm,136,13.3418,2.8922,0.7519
Cu2 Li10 O16 P4,4,0.0,0.3125,0.0,0.5,0.0,0.0,0.0,0.0,0.0,0.0625,-0.9375,2.46,1.0917,0.85,0.3867,2.0,0.559,True,triclinic,1,1,10.3278,2.896,0.6225
Mn2 O12 Se4,3,0.0,0.0,0.0,0.8889,0.0,0.0,0.0,0.0,0.0,0.1111,-1.5556,1.89,0.6377,0.8,0.3062,2.0,0.9428,True,monoclinic,2/m,14,14.7262,3.8696,0.6951
S2 V2,2,0.0,0.0,0.0,0.0,0.0,0.0,0.0,0.0,0.0,0.5,1.5,0.95,0.475,0.35,0.175,1.0,0.5,True,hexagonal,6/mmm,194,13.916,4.9524,0.4888
O24 P6 Sn8,3,0.0,0.0,0.0,0.6316,0.0,0.0,0.0,0.0,0.0,0.0,-2.5789,1.48,0.6699,0.85,0.3446,3.0,1.1956,True,monoclinic,m,9,18.6631,3.5578,1.0
K2 Li6 O60 Si24 Zr4,5,0.0,0.0833,0.0,0.625,0.0,0.0,0.25,0.0,0.0,0.0417,-2.0,2.62,0.9141,1.6,0.3682,3.0,0.7312,True,hexagonal,6/mmm,192,13.8129,2.6532,0.7038
H2 Pr1,2,0.0,0.0,0.0,0.0,0.0,0.3333,0.0,0.0,0.3333,0.0,0.3333,1.07,0.5044,1.6,0.7542,7.0,3.2998,True,cubic,m-3m,225,14.3298,5.5207,1.0
Cs8 Pd4 Se32,3,0.0,0.1818,0.0,0.7273,0.0,0.0,0.0,0.0,0.0,0.0909,-1.0909,1.76,0.6712,1.45,0.5531,2.0,0.782,True,tetragonal,4/mmm,142,36.273,4.178,1.0
As2 Eu1 Ru2,3,0.0,0.0,0.0,0.0,0.0,0.2,0.4,0.0,0.2,0.4,0.4,2.2,0.876,0.7,0.2588,4.0,1.4697,True,tetragonal,4/mmm,139,19.122,8.7525,0.6853
Ag2 Au2 Te8,3,0.0,0.0,0.0,0.6667,0.0,0.0,0.6667,0.0,0.0,0.3333,-0.6667,0.61,0.1872,0.25,0.0804,1.0,0.3727,True,monoclinic,2/m,13,29.4941,7.6497,0.5002
Ba4 Cu4 O20 Sm8,4,0.0,0.0,0.1111,0.5556,0.0,0.2222,0.0,0.0,0.2222,0.1111,-0.0,2.55,1.1007,1.55,0.6263,6.0,2.4944,True,orthorhombic,mmm,62,14.8574,7.2224,0.4653
As2 Cl2 F16,3,0.0,0.0,0.0,0.0,0.9,0.0,0.1,0.0,0.0,0.0,-1.2,1.8,0.568,0.65,0.2324,2.0,0.6403,True,monoclinic,2/m,15,16.1328,2.7005,0.534
In4 Ir2 Sm2,3,0.0,0.0,0.0,0.0,0.0,0.25,0.0,0.0,0.25,0.25,3.0,1.03,0.3672,0.5,0.1785,3.0,1.2247,True,orthorhombic,mmm,63,22.9056,10.3706,0.5422
Nb5 P4 Pd4,3,0.0,0.0,0.0,0.0,0.0,0.0,0.0,0.0,0.0,0.6923,1.6154,0.6,0.2895,0.45,0.1985,2.0,0.9231,True,tetragonal,4/m,87,15.3291,8.4503,0.4787
F12 I4 Sb2,3,0.0,0.0,0.0,0.0,0.8889,0.0,0.1111,0.0,0.0,0.0,-1.2222,1.93,0.737,0.95,0.4323,3.0,1.4142,True,triclinic,-1,2,22.718,3.976,0.744
Al102 Re24 Si12,3,0.0,0.0,0.0,0.0,0.0,0.0,0.087,0.0,0.0,0.1739,2.5652,0.29,0.1273,0.25,0.0606,3.0,1.1371,True,cubic,m-3,200,15.6676,5.8047,1.0
Dy4 O14 Sn4,3,0.0,0.0,0.0,0.6364,0.0,0.1818,0.0,0.0,0.1818,0.0,-1.4545,2.22,0.9175,1.15,0.4895,6.0,2.3461,True,cubic,m-3m,227,13.1458,7.7446,1.0
Cl4 Cu4 Se8,3,0.0,0.0,0.0,0.5,0.25,0.0,0.0,0.0,0.0,0.25,-0.75,1.26,0.4456,0.35,0.1244,1.0,0.433,True,monoclinic,2/m,14,26.4004,4.0399,0.4385
Ce1 Cu2 Si2,3,0.0,0.0,0.0,0.0,0.0,0.2,0.4,0.0,0.2,0.4,-0.2,0.78,0.312,0.75,0.2739,5.0,1.8547,True,tetragonal,4/mmm,139,16.3343,6.5749,0.7162
In2 Pd4 Sr4,3,0.0,0.0,0.4,0.0,0.0,0.0,0.0,0.0,0.0,0.4,2.2,1.25,0.565,0.6,0.275,0.0,0.0,True,monoclinic,2/m,15,26.4118,6.3235,0.7242
Pd2 Rb4 Se32,3,0.0,0.1053,0.0,0.8421,0.0,0.0,0.0,0.0,0.0,0.0526,-1.4737,1.73,0.5304,1.2,0.368,1.0,0.3646,True,tetragonal,-42m,117,31.2945,4.3028,0.5455
Au2 Ge8 K6,3,0.0,0.375,0.0,0.0,0.0,0.0,0.5,0.0,0.0,0.125,-1.25,1.72,0.6494,0.95,0.4513,2.0,0.6614,True,orthorhombic,mmm,59,31.6431,3.9674,0.5088
Co4 S8,2,0.0,0.0,0.0,0.0,0.0,0.0,0.0,0.0,0.0,0.3333,-0.6667,0.7,0.33,0.35,0.165,1.0,0.4714,True,cubic,m-3,205,13.913,4.8959,1.0
Cr1 N1,2,0.0,0.0,0.0,0.0,0.0,0.0,0.0,0.0,0.0,0.5,0.0,1.38,0.69,0.75,0.375,2.0,1.0,True,cubic,m-3m,225,8.98,6.1024,1.0
P4 W4,2,0.0,0.0,0.0,0.0,0.0,0.0,0.0,0.0,0.0,0.5,0.5,0.17,0.085,0.35,0.175,3.0,1.5,True,orthorhombic,mmm,62,14.7377,12.1018,0.521
Al20 O48 Tb12,3,0.0,0.0,0.0,0.6,0.0,0.15,0.0,0.0,0.15,0.0,0.0,3.44,1.2902,1.15,0.4379,6.0,2.0803,True,cubic,m-3m,230,11.1903,5.9629,1.0
I1 K3 O1,3,0.0,0.6,0.0,0.2,0.2,0.0,0.0,0.0,0.0,0.0,-0.0,2.62,1.12,1.6,0.64,3.0,0.9798,True,cubic,m-3m,221,31.1642,2.7729,1.0
Dy1 Os2 Si2,3,0.0,0.0,0.0,0.0,0.0,0.2,0.4,0.0,0.2,0.4,0.6,0.98,0.3581,0.65,0.2375,5.0,1.9391,True,tetragonal,4/mmm,139,16.874,11.7919,0.7372
Al32 O48,2,0.0,0.0,0.0,0.6,0.0,0.0,0.0,0.0,0.0,0.0,0.0,1.83,0.8965,0.65,0.3184,1.0,0.4899,True,monoclinic,m,8,9.521,3.5566,0.1663
F64 Th8 Zr8,3,0.1,0.0,0.0,0.0,0.8,0.0,0.0,0.0,0.1,0.1,0.0,2.68,1.066,1.3,0.4733,7.0,2.1909,True,monoclinic,2/m,14,14.715,5.363,0.5024
Mo8 Na10 O32 Tb2,4,0.0,0.1923,0.0,0.6154,0.0,0.0385,0.0,0.0,0.0385,0.1538,-0.3077,3.44,1.1223,1.2,0.5237,6.0,1.4761,True,tetragonal,4/m,88,14.9415,3.9053,1.0
Bi8 O22 Ta4,3,0.0,0.0,0.0,0.6471,0.0,0.0,0.0,0.0,0.0,0.1176,-0.0,1.94,0.7752,1.0,0.4559,4.0,1.9115,True,triclinic,-1,2,14.9422,8.9808,0.6623
Cl36 Sn6 Zr6,3,0.0,0.0,0.0,0.0,0.75,0.0,0.0,0.0,0.0,0.125,-0.75,1.83,0.6747,0.55,0.2179,2.0,0.866,True,monoclinic,m,7,31.399,2.794,0.355
Sn1 Tl1,2,0.0,0.0,0.0,0.0,0.0,0.0,0.0,0.0,0.0,0.0,-1.5,0.34,0.17,0.45,0.225,1.0,0.5,True,tetragonal,4/mmm,123,29.4442,9.1106,0.6755
Pt3 Y1,2,0.0,0.0,0.0,0.0,0.0,0.0,0.0,0.0,0.0,1.0,2.25,1.06,0.459,0.45,0.1949,1.0,0.433,True,cubic,m-3m,221,17.6156,15.8874,1.0
Al1 P1,2,0.0,0.0,0.0,0.0,0.0,0.0,0.0,0.0,0.0,0.0,0.0,0.58,0.29,0.25,0.125,0.0,0.0,True,cubic,-43m,216,20.8777,2.3048,1.0
H2 Th1,2,0.3333,0.0,0.0,0.0,0.0,0.0,0.0,0.0,0.3333,0.0,0.6667,0.9,0.4243,1.55,0.7307,8.0,3.7712,True,tetragonal,4/mmm,139,13.606,9.5217,1.0
Ni4 Pr4 Sn4,3,0.0,0.0,0.0,0.0,0.0,0.3333,0.0,0.0,0.3333,0.3333,0.3333,0.83,0.38,0.5,0.216,4.0,1.6997,True,orthorhombic,mmm,62,22.1447,7.9563,0.6104
Li2 O14 P4 V2,4,0.0,0.0909,0.0,0.6364,0.0,0.0,0.0,0.0,0.0,0.0909,-1.2727,2.46,0.8679,0.85,0.3135,2.0,0.6428,True,triclinic,1,1,12.2373,2.8598,0.6122
Cd2 Cr4 O8,3,0.0,0.0,0.0,0.5714,0.0,0.0,0.0,0.0,0.0,0.4286,0.0,1.78,0.876,0.95,0.4232,3.0,1.1952,True,cubic,m-3m,227,12.0573,5.5167,1.0
Sc1 Zn12,2,0.0,0.0,0.0,0.0,0.0,0.0,0.0,0.0,0.0,1.0,2.0769,0.29,0.0773,0.25,0.0666,0.0,0.0,True,tetragonal,4/mmm,139,15.4508,6.8606,0.7616
K12 La4 P8 S32,4,0.0,0.2143,0.0,0.0,0.0,0.0714,0.0,0.0,0.0714,0.0714,-1.1429,1.76,0.7429,1.2,0.5171,5.0,1.2936,True,monoclinic,2/m,14,28.0064,2.4338,0.5346
Hg2 Mo2 O8,3,0.0,0.0,0.0,0.6667,0.0,0.0,0.0,0.0,0.0,0.3333,-0.5,1.44,0.6428,0.9,0.4127,4.0,1.675,True,monoclinic,2/m,15,14.7671,6.7568,0.8082
Ge4 In4 Li4 O16,4,0.0,0.1429,0.0,0.5714,0.0,0.0,0.1429,0.0,0.0,0.0,-1.1429,2.46,0.96,0.95,0.4123,3.0,1.1606,True,orthorhombic,mmm,62,12.1729,5.0355,0.4654
Cd28 Cl24 P16,3,0.0,0.0,0.0,0.0,0.3529,0.0,0.0,0.0,0.0,0.4118,-0.2353,1.47,0.6453,0.55,0.2707,2.0,0.9843,True,cubic,m-3,205,26.2582,4.1793,1.0
P12 Tc4,2,0.0,0.0,0.0,0.0,0.0,0.0,0.0,0.0,0.0,0.25,-1.25,0.29,0.1256,0.35,0.1516,2.0,0.866,True,orthorhombic,mmm,62,15.5613,5.0933,0.2018
Li2 Mn2 O8 V2,4,0.0,0.1429,0.0,0.5714,0.0,0.0,0.0,0.0,0.0,0.2857,0.0,2.46,1.0336,0.85,0.3968,2.0,0.9035,True,orthorhombic,mmm,63,11.8911,3.5274,0.8247
Ga8 K12 O48 P12,4,0.0,0.15,0.0,0.6,0.0,0.0,0.0,0.0,0.0,0.0,-1.2,2.62,0.9884,1.6,0.5658,2.0,0.8529,True,orthorhombic,mm2,33,16.3724,2.7468,0.4959
Mg4 Pd4 Yb4,3,0.0,0.0,0.3333,0.0,0.0,0.3333,0.0,0.0,0.3333,0.3333,2.3333,2.2,0.9036,0.35,0.1472,5.0,2.0548,True,orthorhombic,mmm,62,22.0987,7.6085,0.4887