formula,numberOfSpecies,fracActinoid,fracAlkali,fracAlkaline,fracChalcogen,fracHalogen,fracLanthanoid,fracMetalloid,fracNobleGas,fracRareEarth,fracTransitionMetal,electronsPerAtom,electronegativityRange,electronegativityStd,radiiRange,radiiStd,rowRange,rowStd,ordered,crystalSystem,pointGroup,spaceGroupNumber,volumePerSite,density,c_a
Ge3 Mn3 Nb3,3,0.0,0.0,0.0,0.0,0.0,0.0,0.3333,0.0,0.0,0.6667,1.0,0.46,0.2061,0.2,0.085,1.0,0.4714,True,hexagonal,-6m2,189,14.8691,8.2077,1.7186
Rh4 Sm2,2,0.0,0.0,0.0,0.0,0.0,0.3333,0.0,0.0,0.3333,0.6667,3.0,1.11,0.5233,0.5,0.2357,3.0,1.4142,True,cubic,m-3m,227,18.5342,10.6368,1.0
Mo6 Te8,2,0.0,0.0,0.0,0.5714,0.0,0.0,0.5714,0.0,0.0,0.4286,0.5714,0.06,0.0297,0.05,0.0247,0.0,0.0,True,trigonal,-3,148,26.3961,7.1735,1.0
Co2 Er2 Si4,3,0.0,0.0,0.0,0.0,0.0,0.25,0.5,0.0,0.25,0.25,-0.75,0.66,0.283,0.65,0.2658,5.0,2.0616,True,orthorhombic,mmm,63,16.0273,7.3137,0.475
Pb2 S4 Ta2,3,0.0,0.0,0.0,0.0,0.0,0.0,0.0,0.0,0.0,0.25,0.75,1.08,0.4435,0.8,0.3361,3.0,1.5,True,hexagonal,6/mmm,194,22.234,8.4446,0.1871
Au12 Sn12 Sr12,3,0.0,0.0,0.3333,0.0,0.0,0.0,0.0,0.0,0.0,0.3333,0.3333,1.59,0.657,0.65,0.2858,1.0,0.4714,True,orthorhombic,mmm,62,27.1987,8.2074,0.2057
Al1 Ce1 O3,3,0.0,0.0,0.0,0.6,0.0,0.2,0.0,0.0,0.2,0.0,0.0,2.32,1.0283,1.25,0.5026,6.0,2.3324,True,cubic,m-3m,221,10.8352,6.5929,1.0
Os6 Sn14,2,0.0,0.0,0.0,0.0,0.0,0.0,0.0,0.0,0.0,0.3,-1.6,0.24,0.11,0.15,0.0687,1.0,0.4583,True,cubic,m-3m,229,21.4819,10.8347,1.0
C2 F6 O6 S2 Zn1,5,0.0,0.0,0.0,0.3529,0.3529,0.0,0.0,0.0,0.0,0.0588,-1.6471,2.33,0.6761,0.85,0.2281,2.0,0.5455,True,trigonal,-3,148,13.8016,2.5729,1.0
Nb4 Pd4 Si4,3,0.0,0.0,0.0,0.0,0.0,0.0,0.3333,0.0,0.0,0.6667,1.0,0.6,0.2449,0.35,0.1546,2.0,0.9428,True,orthorhombic,mmm,62,15.3717,8.1888,0.5069
Cr2 S2,2,0.0,0.0,0.0,0.0,0.0,0.0,0.0,0.0,0.0,0.5,0.5,0.92,0.46,0.4,0.2,1.0,0.5,True,hexagonal,6/mmm,194,14.2619,4.8937,0.5893
Cd6 Dy2,2,0.0,0.0,0.0,0.0,0.0,0.25,0.0,0.0,0.25,0.75,2.25,0.47,0.2035,0.2,0.0866,3.0,1.299,True,orthorhombic,mmm,63,24.0026,8.6431,0.7484
Al9 Ba1 Ni2,3,0.0,0.0,0.0833,0.0,0.0,0.0,0.0,0.0,0.0,0.1667,2.75,1.02,0.241,0.9,0.2465,3.0,0.862,True,hexagonal,6/mmm,191,18.1655,3.7901,2.0057
C2 Fe2 O6,3,0.0,0.0,0.0,0.6,0.0,0.0,0.0,0.0,0.0,0.2,-1.6,1.61,0.6533,0.8,0.3124,2.0,0.8,True,trigonal,-3m,167,10.0867,3.8145,1.0
Cl8 Hf2,2,0.0,0.0,0.0,0.0,0.8,0.0,0.0,0.0,0.0,0.2,0.0,1.86,0.744,0.55,0.22,3.0,1.2,True,monoclinic,2/m,13,33.0525,3.2184,0.7961
Bi48 Br56,2,0.0,0.0,0.0,0.0,0.5385,0.0,0.0,0.0,0.0,0.0,0.8462,0.94,0.4686,0.45,0.2243,2.0,0.997,True,orthorhombic,mmm,58,34.6394,6.6863,0.3759
Cr2 Ni2 O8,3,0.0,0.0,0.0,0.6667,0.0,0.0,0.0,0.0,0.0,0.3333,-0.5,1.78,0.7835,0.8,0.3656,2.0,0.9428,True,orthorhombic,mmm,63,12.1593,3.976,0.7973
Al2 Ni3 Pr1,3,0.0,0.0,0.0,0.0,0.0,0.1667,0.0,0.0,0.1667,0.5,2.5,0.78,0.2802,0.6,0.2062,5.0,1.6997,True,hexagonal,6/mmm,191,15.6433,6.5628,1.3904
Pu1,1,1.0,0.0,0.0,0.0,0.0,0.0,0.0,0.0,1.0,0.0,4.0,0.0,0.0,0.0,0.0,0.0,0.0,True,cubic,m-3m,225,27.4494,14.7607,1.0
La4 Pb2 Se8,3,0.0,0.0,0.0,0.5714,0.0,0.2857,0.0,0.0,0.2857,0.2857,0.0,1.45,0.6395,0.8,0.374,4.0,1.7613,True,tetragonal,-42m,122,27.5339,6.8998,1.0
Cu4 Nd4 S8,3,0.0,0.0,0.0,0.0,0.0,0.25,0.0,0.0,0.25,0.25,0.25,1.44,0.5942,0.85,0.3482,5.0,2.0616,True,monoclinic,2/m,14,20.0216,5.638,0.9039
Au2 Cu2,2,0.0,0.0,0.0,0.0,0.0,0.0,0.0,0.0,0.0,1.0,2.5,0.64,0.32,0.0,0.0,2.0,1.0,True,tetragonal,4/mmm,123,15.0202,14.4004,0.9041
O8 P2 Sb2,3,0.0,0.0,0.0,0.6667,0.0,0.0,0.1667,0.0,0.0,0.0,-2.3333,1.39,0.6236,0.85,0.322,3.0,1.1055,True,monoclinic,2/m,11,14.6879,4.0838,0.7078
O34 P12 Sr4,3,0.0,0.0,0.08,0.68,0.0,0.0,0.0,0.0,0.0,0.0,-1.92,2.49,0.7885,1.4,0.3898,3.0,0.8542,True,monoclinic,2,4,14.0087,3.0017,0.5399
Ir2 Nb2,2,0.0,0.0,0.0,0.0,0.0,0.0,0.0,0.0,0.0,1.0,4.0,0.6,0.3,0.1,0.05,1.0,0.5,True,tetragonal,4/mmm,123,16.2086,14.6052,0.9555
Cd4 Cu2 Er2,3,0.0,0.0,0.0,0.0,0.0,0.25,0.0,0.0,0.25,0.75,2.25,0.66,0.2409,0.4,0.1414,4.0,1.5,True,orthorhombic,mmm,63,21.1848,8.9284,0.7334
As4 F12,2,0.0,0.0,0.0,0.0,0.75,0.0,0.25,0.0,0.0,0.0,-1.5,1.8,0.7794,0.65,0.2815,2.0,0.866,True,orthorhombic,mm2,33,17.8767,3.0634,0.7203
As4 Pd2 U2,3,0.25,0.0,0.0,0.0,0.0,0.0,0.5,0.0,0.25,0.25,0.5,0.82,0.3494,0.6,0.2459,5.0,2.0616,True,tetragonal,4/mmm,129,19.0874,10.7504,0.4189
Dy1 Th1,2,0.5,0.0,0.0,0.0,0.0,0.5,0.0,0.0,1.0,0.0,3.5,0.08,0.04,0.05,0.025,1.0,0.5,True,cubic,m-3m,221,32.1847,10.1779,1.0
Bi18 Ca18 Cd8,3,0.0,0.0,0.4091,0.0,0.0,0.0,0.0,0.0,0.0,0.1818,2.4091,1.02,0.4665,0.25,0.1074,2.0,0.9045,True,orthorhombic,mmm,55,31.9843,6.3508,0.2109
Ba1 In2 Te4,3,0.0,0.0,0.1429,0.5714,0.0,0.0,0.5714,0.0,0.0,0.0,0.0,1.21,0.4106,0.75,0.2535,1.0,0.3499,True,tetragonal,422,97,39.138,5.3178,1.0
Au2 I8 Li2,3,0.0,0.1667,0.0,0.0,0.6667,0.0,0.0,0.0,0.0,0.1667,0.0,1.68,0.6187,0.1,0.0289,4.0,1.2472,True,monoclinic,2/m,14,35.7062,5.515,0.341
Na12 O92 P32 Ti4,4,0.0,0.0857,0.0,0.6571,0.0,0.0,0.0,0.0,0.0,0.0286,-1.8,2.51,0.8319,1.2,0.3621,2.0,0.5391,True,cubic,432,213,12.9465,2.6847,1.0
Ge2 Mn2 Y1,3,0.0,0.0,0.0,0.0,0.0,0.0,0.4,0.0,0.0,0.6,-0.2,0.79,0.3041,0.55,0.2015,1.0,0.4,True,tetragonal,4/mmm,139,17.0168,6.7149,0.6444
Cs2 F10 K4 Pd2,4,0.0,0.3333,0.0,0.0,0.5556,0.0,0.0,0.0,0.0,0.1111,-0.0,3.19,1.4588,2.1,0.8465,4.0,1.4741,True,tetragonal,4/mmm,127,19.8555,3.8332,0.8489
Al8 Ce2 Ni2,3,0.0,0.0,0.0,0.0,0.0,0.1667,0.0,0.0,0.1667,0.1667,2.8333,0.79,0.2324,0.6,0.2192,5.0,1.8257,True,orthorhombic,mmm,63,17.6566,4.8079,0.5108
Al1 Ba1 Ge1,3,0.0,0.0,0.3333,0.0,0.0,0.0,0.3333,0.0,0.0,0.0,0.3333,1.12,0.4634,0.9,0.4243,3.0,1.2472,True,hexagonal,-6m2,187,28.8528,4.5456,0.8445
Ag4 S2,2,0.0,0.0,0.0,0.0,0.0,0.0,0.0,0.0,0.0,0.6667,0.0,0.65,0.3064,0.6,0.2828,2.0,0.9428,True,triclinic,1,1,21.5153,6.3751,0.4728
H12 O16 P4,3,0.0,0.0,0.0,0.5,0.0,0.0,0.0,0.0,0.0,0.0,-1.75,1.25,0.6213,0.75,0.2436,2.0,0.6614,True,monoclinic,2/m,14,10.7336,1.895,0.4007
Cr6 Ge6 Ho1,3,0.0,0.0,0.0,0.0,0.0,0.0769,0.4615,0.0,0.0769,0.4615,-0.2308,0.78,0.2329,0.5,0.1342,4.0,1.0659,True,hexagonal,6/mmm,191,14.4512,8.0677,0.6143
F18 Na2 Th4,3,0.1667,0.0833,0.0,0.0,0.75,0.0,0.0,0.0,0.1667,0.0,-0.0,3.05,1.217,1.3,0.5629,7.0,2.586,True,tetragonal,-42m,121,14.2455,6.3922,1.0
Co2 Dy4 Si4,3,0.0,0.0,0.0,0.0,0.0,0.4,0.4,0.0,0.4,0.2,0.0,0.68,0.3299,0.65,0.2922,5.0,2.3152,True,monoclinic,2/m,12,18.8224,7.7653,0.4617
Ba4 Pt8 S12,3,0.0,0.0,0.1667,0.0,0.0,0.0,0.0,0.0,0.0,0.3333,-0.0,1.69,0.6003,1.15,0.4077,3.0,1.5,True,tetragonal,422,92,24.5721,7.0246,0.5545
In2 Na10 O8,3,0.0,0.5,0.0,0.4,0.0,0.0,0.0,0.0,0.0,0.0,0.0,2.51,1.1859,1.2,0.572,3.0,0.8718,True,orthorhombic,mmm,59,15.9178,3.0645,0.7182
Cr2 O12 Ta4,3,0.0,0.0,0.0,0.6667,0.0,0.0,0.0,0.0,0.0,0.3333,0.1111,1.94,0.8904,0.85,0.3931,4.0,1.663,True,tetragonal,4/mmm,136,12.0731,7.7922,0.5258
Ba2 Cl10 Gd2,3,0.0,0.0,0.1429,0.0,0.7143,0.1429,0.0,0.0,0.1429,0.0,-0.0,2.27,0.959,1.15,0.4503,5.0,1.8844,True,monoclinic,2/m,15,26.8405,4.1702,0.5504
F4 Pb1,2,0.0,0.0,0.0,0.0,0.8,0.0,0.0,0.0,0.0,0.0,-0.4,1.65,0.66,1.3,0.52,4.0,1.6,True,tetragonal,4/mmm,139,16.1937,5.8079,0.8336
B2 C1 Ni2 Pr1,4,0.0,0.0,0.0,0.0,0.0,0.1667,0.3333,0.0,0.1667,0.3333,1.5,1.42,0.4182,1.15,0.3983,6.0,2.1344,True,tetragonal,4/mmm,139,11.5186,7.0141,0.6614
Ni6 O28 P8 Sr2,4,0.0,0.0,0.0455,0.6364,0.0,0.0,0.0,0.0,0.0,0.1364,-1.4545,2.49,0.764,1.4,0.3714,3.0,0.8872,True,monoclinic,2/m,14,11.7114,3.9416,0.786
Pt8 Sb8 Si8,3,0.0,0.0,0.0,0.0,0.0,0.0,0.6667,0.0,0.0,0.3333,-1.6667,0.38,0.1563,0.35,0.1472,3.0,1.2472,True,orthorhombic,mmm,61,19.8815,9.603,0.5513
O20 Se8 Sr4,3,0.0,0.0,0.125,0.875,0.0,0.0,0.0,0.0,0.0,0.0,-1.5,2.49,0.8295,1.4,0.4722,3.0,1.1659,True,triclinic,-1,2,16.9476,3.9871,0.6323
Hg14 O20 P4,3,0.0,0.0,0.0,0.5263,0.0,0.0,0.0,0.0,0.0,0.3684,-1.0,1.44,0.7,0.9,0.4191,4.0,1.8727,True,monoclinic,2/m,14,17.06,8.3302,0.6251
Bi4 Cu4 S8,3,0.0,0.0,0.0,0.0,0.0,0.0,0.0,0.0,0.0,0.25,0.25,0.68,0.3129,0.6,0.2534,3.0,1.2247,True,orthorhombic,mmm,62,22.3546,6.2519,0.2744
Au1 Sb3,2,0.0,0.0,0.0,0.0,0.0,0.0,0.75,0.0,0.0,0.25,-1.5,0.49,0.2122,0.1,0.0433,1.0,0.433,True,cubic,m-3m,229,26.5835,8.7802,1.0
Au2 Er2,2,0.0,0.0,0.0,0.0,0.0,0.5,0.0,0.0,0.5,0.5,3.0,1.3,0.65,0.4,0.2,2.0,1.0,True,orthorhombic,mmm,63,23.5082,12.8638,0.6435
Cl6 Pt1 Rb2,3,0.0,0.2222,0.0,0.0,0.6667,0.0,0.0,0.0,0.0,0.1111,-0.2222,2.34,0.9598,1.35,0.5511,3.0,1.1331,True,cubic,m-3m,225,29.4186,3.6297,1.0
Au2 Cl6 Cs2,3,0.0,0.2,0.0,0.0,0.6,0.0,0.0,0.0,0.0,0.2,0.2,2.37,0.918,1.6,0.62,3.0,1.4697,True,tetragonal,4/mmm,139,32.7096,4.4291,0.9735
Ag3 B1 O3,3,0.0,0.0,0.0,0.4286,0.0,0.0,0.1429,0.0,0.0,0.4286,0.0,1.51,0.7345,1.0,0.4711,3.0,1.4846,True,trigonal,32,155,14.1699,6.402,1.0
H24 O28 Rb4 Se4 Zn2,5,0.0,0.0645,0.0,0.5161,0.0,0.0,0.0,0.0,0.0,0.0323,-1.2903,2.62,0.7801,2.1,0.5304,4.0,1.164,True,monoclinic,2/m,14,12.1454,2.7801,0.504
Nd4 Te10,2,0.0,0.0,0.0,0.7143,0.0,0.2857,0.7143,0.0,0.2857,0.0,-0.5714,0.96,0.4337,0.45,0.2033,3.0,1.3553,True,orthorhombic,mmm,63,32.2724,6.8102,0.1925
Ga4 Zr4,2,0.0,0.0,0.0,0.0,0.0,0.0,0.0,0.0,0.0,0.5,3.5,0.48,0.24,0.25,0.125,1.0,0.5,True,tetragonal,4/mmm,141,19.5173,6.8467,0.3653
Be4 La4 O10,3,0.0,0.0,0.2222,0.5556,0.0,0.2222,0.0,0.0,0.2222,0.2222,-0.0,2.34,1.0577,1.35,0.5385,6.0,2.4944,True,monoclinic,2/m,15,11.6177,5.9687,0.7104
Mn2 Pr2 Si2,3,0.0,0.0,0.0,0.0,0.0,0.3333,0.3333,0.0,0.3333,0.3333,0.3333,0.77,0.3148,0.75,0.3082,5.0,2.1602,True,tetragonal,4/mmm,129,20.2354,6.1254,0.521
Cs4 Se6,2,0.0,0.4,0.0,0.6,0.0,0.0,0.0,0.0,0.0,0.0,-0.8,1.76,0.8622,1.45,0.7104,2.0,0.9798,True,orthorhombic,mm2,36,40.7937,4.0925,0.8371
Li11 Ni12 O24,3,0.0,0.234,0.0,0.5106,0.0,0.0,0.0,0.0,0.0,0.2553,-0.2766,2.46,1.0393,0.85,0.4004,2.0,0.8721,True,monoclinic,2/m,12,8.8313,4.6594,2.067
P4 Se12 Sn4,3,0.0,0.0,0.0,0.6,0.0,0.0,0.0,0.0,0.0,0.0,-2.6,0.59,0.2438,0.45,0.147,2.0,0.6325,True,monoclinic,2/m,14,27.2073,4.7186,0.7026
In1 K1 P2 S7,4,0.0,0.0909,0.0,0.0,0.0,0.0,0.0,0.0,0.0,0.0,-1.4545,1.76,0.5246,1.2,0.3648,2.0,0.6166,True,monoclinic,2,5,26.5132,2.507,0.9656
Cu4 La4 S4 Te4,4,0.0,0.0,0.0,0.25,0.0,0.25,0.25,0.0,0.25,0.5,0.25,1.48,0.534,0.95,0.34,5.0,1.8708,True,monoclinic,2/m,14,23.7267,6.3358,0.8343
Ge6 Yb10,2,0.0,0.0,0.0,0.0,0.0,0.625,0.375,0.0,0.625,0.0,0.375,2.01,0.9731,0.5,0.2421,4.0,1.9365,True,hexagonal,6/mmm,193,27.3092,8.2324,1.3611
O14 V4 Yb4,3,0.0,0.0,0.0,0.6364,0.0,0.1818,0.0,0.0,0.1818,0.1818,0.1818,3.44,1.355,1.15,0.4726,6.0,2.2709,True,cubic,m-3m,227,11.4487,7.3834,1.0
Bi4 Na12 O12,3,0.0,0.4286,0.0,0.4286,0.0,0.0,0.0,0.0,0.0,0.0,0.0,2.51,1.1633,1.2,0.5729,4.0,1.3093,True,cubic,-43m,217,16.698,4.6306,1.0
C2 Cr6 Ge2,3,0.0,0.0,0.0,0.0,0.0,0.0,0.2,0.0,0.0,0.6,0.2,0.89,0.3484,0.7,0.2713,2.0,0.8,True,orthorhombic,mmm,63,11.3608,7.0346,0.376
In1 Pd3,2,0.0,0.0,0.0,0.0,0.0,0.0,0.0,0.0,0.0,0.75,2.25,0.42,0.1819,0.15,0.065,0.0,0.0,True,tetragonal,4/mmm,123,16.5469,10.8903,0.9994
B3 La3 O15 Si3,4,0.0,0.0,0.0,0.625,0.0,0.125,0.25,0.0,0.125,0.125,-1.0,2.34,0.889,1.35,0.4449,6.0,1.9645,True,trigonal,32,152,11.7103,4.5695,1.0048
Li8 Mo8 O40 P8,4,0.0,0.125,0.0,0.625,0.0,0.0,0.0,0.0,0.0,0.125,-1.0,2.46,0.8761,0.85,0.3629,3.0,1.0,True,orthorhombic,mm2,33,14.5989,3.0405,1.2127
Bi4 O16 Ta4,3,0.0,0.0,0.0,0.6667,0.0,0.0,0.0,0.0,0.0,0.1667,0.0,1.94,0.8061,1.0,0.4382,4.0,1.8856,True,orthorhombic,mmm,52,14.353,8.7527,0.4248
Pt3 V1,2,0.0,0.0,0.0,0.0,0.0,0.0,0.0,0.0,0.0,1.0,2.75,0.65,0.2815,0.0,0.0,2.0,0.866,True,tetragonal,4/mmm,139,15.0351,17.5659,0.8059
O8 Si4,2,0.0,0.0,0.0,0.6667,0.0,0.0,0.3333,0.0,0.0,0.0,-2.6667,1.54,0.726,0.5,0.2357,1.0,0.4714,True,orthorhombic,mmm,60,7.8866,4.2169,0.8097
Li2 O24 P8 Tb2,4,0.0,0.0556,0.0,0.6667,0.0,0.0556,0.0,0.0,0.0556,0.0,-1.7778,3.44,0.987,1.15,0.3304,6.0,1.3833,True,monoclinic,2/m,15,12.8439,3.4602,0.7946
Ge16 Yb20,2,0.0,0.0,0.0,0.0,0.0,0.5556,0.4444,0.0,0.5556,0.0,-0.1111,2.01,0.9988,0.5,0.2485,4.0,1.9876,True,orthorhombic,mmm,62,25.419,8.3891,0.4831
O6 V4,2,0.0,0.0,0.0,0.6,0.0,0.0,0.0,0.0,0.0,0.4,0.8,1.81,0.8867,0.75,0.3674,2.0,0.9798,True,trigonal,-3m,167,10.7194,4.6436,1.0
Na1 S2 Y1,3,0.0,0.25,0.0,0.0,0.0,0.0,0.0,0.0,0.0,0.25,0.0,1.65,0.7595,0.8,0.4,2.0,0.866,True,trigonal,-3m,166,23.0476,3.1706,1.0
Fe8 Na40 O32,3,0.0,0.5,0.0,0.4,0.0,0.0,0.0,0.0,0.0,0.1,-0.1,2.51,1.185,1.2,0.5671,2.0,0.6403,True,orthorhombic,mmm,61,14.4515,2.6979,0.3315
Nb4 Pt12,2,0.0,0.0,0.0,0.0,0.0,0.0,0.0,0.0,0.0,1.0,2.75,0.68,0.2944,0.1,0.0433,1.0,0.433,True,monoclinic,2/m,11,16.0508,17.5398,0.5244
B6 Tb1,2,0.0,0.0,0.0,0.0,0.0,0.1429,0.8571,0.0,0.1429,0.0,3.0,2.04,0.7139,0.9,0.3149,6.0,2.0996,True,cubic,m-3m,221,9.8441,5.3929,1.0
Fe6 Ge6 Mg1,3,0.0,0.0,0.0769,0.0,0.0,0.0,0.4615,0.0,0.0,0.4615,-0.7692,0.7,0.1841,0.25,0.0858,1.0,0.2665,True,hexagonal,6/mmm,191,13.7527,7.3859,0.6285
C6 H6 N6 O6,4,0.0,0.0,0.0,0.25,0.0,0.0,0.0,0.0,0.0,0.0,-2.5,1.24,0.4716,0.45,0.1768,1.0,0.433,True,monoclinic,2/m,15,11.1211,1.606,0.9977
Hf4 O32 Te12,3,0.0,0.0,0.0,0.9167,0.0,0.0,0.25,0.0,0.0,0.0833,-1.5,2.14,0.753,0.95,0.3966,4.0,1.5523,True,cubic,m-3,206,15.9268,5.9888,1.0
Al2 Co6 U4,3,0.3333,0.0,0.0,0.0,0.0,0.0,0.0,0.0,0.3333,0.5,3.5,0.5,0.2251,0.5,0.2034,6.0,2.5,True,hexagonal,6/mmm,194,14.6146,12.8741,0.6749
F4 S1,2,0.0,0.0,0.0,0.0,0.8,0.0,0.0,0.0,0.0,0.0,-1.2,1.4,0.56,0.5,0.2,1.0,0.4,True,tetragonal,-42m,121,17.5006,2.0506,0.9706
B20 Fe2 Th4,3,0.1538,0.0,0.0,0.0,0.0,0.0,0.7692,0.0,0.1538,0.0769,3.0769,0.74,0.266,0.95,0.3558,7.0,2.5162,True,orthorhombic,mmm,55,10.182,7.8787,0.3717
Ga1 Mo4 S8 Si1,4,0.0,0.0,0.0,0.0,0.0,0.0,0.0714,0.0,0.0,0.2857,-0.0714,0.77,0.2753,0.45,0.2008,2.0,0.895,True,cubic,-43m,216,21.2708,4.1157,1.0
La6 Se8,2,0.0,0.0,0.0,0.5714,0.0,0.4286,0.0,0.0,0.4286,0.4286,0.1429,1.45,0.7176,0.8,0.3959,4.0,1.9795,True,cubic,-43m,220,26.8793,6.4651,1.0
Cu24 Pr4,2,0.0,0.0,0.0,0.0,0.0,0.1429,0.0,0.0,0.1429,0.8571,2.1429,0.77,0.2694,0.5,0.175,4.0,1.3997,True,orthorhombic,mmm,62,14.9622,8.279,0.5008
B4 Ca2 Rh5,3,0.0,0.0,0.1818,0.0,0.0,0.0,0.3636,0.0,0.0,0.4545,2.8182,1.28,0.4652,0.95,0.3431,3.0,1.3545,True,orthorhombic,mmm,69,13.9533,6.9016,0.8792
K48 Se56 Sn16,3,0.0,0.4,0.0,0.4667,0.0,0.0,0.0,0.0,0.0,0.0,-1.0667,1.73,0.806,1.05,0.4913,1.0,0.3399,True,monoclinic,2/m,14,35.612,3.1854,0.6265
Ce2 Fe2 Si2,3,0.0,0.0,0.0,0.0,0.0,0.3333,0.3333,0.0,0.3333,0.3333,0.3333,0.78,0.3524,0.75,0.3082,5.0,2.1602,True,tetragonal,4/mmm,129,18.258,6.7922,0.6056
B8 Ir4 Mo8,3,0.0,0.0,0.0,0.0,0.0,0.0,0.4,0.0,0.0,0.6,3.4,0.16,0.0669,0.6,0.28,4.0,1.6733,True,orthorhombic,mmm,58,11.4152,11.8038,0.3445
Ba2 Nd1 O6 Sb1,4,0.0,0.0,0.2,0.6,0.0,0.1,0.1,0.0,0.1,0.0,-0.8,2.55,1.1181,1.55,0.6623,6.0,2.1932,True,trigonal,-3,148,16.2757,6.4955,1.0
Bi6 Br2 La10,3,0.0,0.0,0.0,0.0,0.1111,0.5556,0.0,0.0,0.5556,0.5556,2.5556,1.86,0.6348,0.8,0.264,4.0,1.3699,True,hexagonal,6/mmm,193,31.9571,8.0908,1.4307
Al8 Pt16,2,0.0,0.0,0.0,0.0,0.0,0.0,0.0,0.0,0.0,0.6667,2.3333,0.67,0.3158,0.1,0.0471,3.0,1.4142,True,orthorhombic,mmm,51,14.9991,15.3941,0.24
B40 H40 K8,3,0.0,0.0909,0.0,0.0,0.0,0.0,0.4545,0.0,0.0,0.0,1.0,1.38,0.3814,1.95,0.5539,3.0,0.8624,True,monoclinic,2/m,14,11.4545,1.2941,0.5179
O8 Pr2 V2,3,0.0,0.0,0.0,0.6667,0.0,0.1667,0.0,0.0,0.1667,0.1667,0.0,2.31,0.9818,1.25,0.493,6.0,2.2111,True,tetragonal,4/mmm,141,15.2628,4.6392,1.0
Cu6 Ge3 S12 Sr3,4,0.0,0.0,0.125,0.0,0.0,0.0,0.125,0.0,0.0,0.25,-0.75,1.63,0.5388,1.0,0.3225,2.0,0.696,True,trigonal,3,145,21.107,4.0872,0.404
Ho8 Se12,2,0.0,0.0,0.0,0.6,0.0,0.4,0.0,0.0,0.4,0.0,0.0,1.32,0.6467,0.6,0.2939,4.0,1.9596,True,orthorhombic,mmm,70,28.9293,6.5062,0.5484
Ba4 F1 K1 O14 Ti5,5,0.0,0.04,0.16,0.56,0.04,0.0,0.0,0.0,0.0,0.2,0.0,3.16,1.1356,1.7,0.6294,4.0,1.5052,True,tetragonal,4/mmm,123,13.0697,5.4416,0.1972
Dy2 Fe4,2,0.0,0.0,0.0,0.0,0.0,0.3333,0.0,0.0,0.3333,0.6667,2.3333,0.61,0.2876,0.35,0.165,4.0,1.8856,True,cubic,m-3m,227,15.9733,9.5013,1.0
Gd2 O8 Pa2,3,0.1667,0.0,0.0,0.6667,0.0,0.1667,0.0,0.0,0.3333,0.0,0.0,2.24,0.989,1.2,0.5657,7.0,3.0777,True,tetragonal,4/mmm,141,13.3579,9.3707,1.1595
Br6 Mn2 Rb2,3,0.0,0.2,0.0,0.0,0.6,0.0,0.0,0.0,0.0,0.2,0.0,2.14,0.8997,1.2,0.4652,1.0,0.4,True,hexagonal,6/mmm,194,33.1715,3.8057,1.1719
As1 Se3 Y4,3,0.0,0.0,0.0,0.375,0.0,0.0,0.125,0.0,0.0,0.5,0.375,1.33,0.629,0.65,0.325,1.0,0.5,True,monoclinic,2/m,12,24.3379,5.6922,1.1533
F4 Mg1 Rb2,3,0.0,0.2857,0.1429,0.0,0.5714,0.0,0.0,0.0,0.0,0.0,0.0,3.16,1.4907,1.85,0.8185,3.0,1.3093,True,tetragonal,4/mmm,139,17.0753,3.7681,0.5438
Pb2 S2,2,0.0,0.0,0.0,0.0,0.0,0.0,0.0,0.0,0.0,0.0,0.0,0.25,0.125,0.8,0.4,3.0,1.5,True,orthorhombic,mm2,39,51.4572,3.8606,0.3742
As4 C4 H32 N12 O16,5,0.0,0.0,0.0,0.2353,0.0,0.0,0.0588,0.0,0.0,0.0,-1.8824,1.26,0.5315,0.9,0.2503,3.0,0.7624,True,monoclinic,2/m,14,10.1087,1.9424,0.447
C2 Cl16 Si6,3,0.0,0.0,0.0,0.0,0.6667,0.0,0.25,0.0,0.0,0.0,-2.0,1.26,0.5423,0.4,0.1,1.0,0.2764,True,triclinic,-1,2,28.4373,1.8486,0.9386
Dy1 Ga2,2,0.0,0.0,0.0,0.0,0.0,0.3333,0.0,0.0,0.3333,0.0,3.0,0.59,0.2781,0.45,0.2121,4.0,1.8856,True,hexagonal,6/mmm,191,21.1711,7.8943,1.0282
Nb1 S1,2,0.0,0.0,0.0,0.0,0.0,0.0,0.0,0.0,0.0,0.5,1.5,0.98,0.49,0.45,0.225,2.0,1.0,True,hexagonal,-6m2,187,15.8525,6.5453,0.9983
Cu2 Dy2 Sb4,3,0.0,0.0,0.0,0.0,0.0,0.25,0.5,0.0,0.25,0.25,-0.25,0.83,0.3433,0.4,0.15,4.0,1.5,True,tetragonal,4/mmm,129,22.8482,8.5316,0.442
Se4 Ti5,2,0.0,0.0,0.0,0.4444,0.0,0.0,0.0,0.0,0.0,0.5556,1.3333,1.01,0.5019,0.25,0.1242,0.0,0.0,True,tetragonal,4/m,87,18.3843,5.5717,0.4918
H6 O18 P6 Sc4,4,0.0,0.0,0.0,0.5294,0.0,0.0,0.0,0.0,0.0,0.1176,-1.4118,2.08,0.7668,1.35,0.3892,3.0,0.8765,True,hexagonal,6/m,176,14.1461,2.2776,1.0808
Ce1 Pd5,2,0.0,0.0,0.0,0.0,0.0,0.1667,0.0,0.0,0.1667,0.8333,2.1667,1.08,0.4025,0.45,0.1677,3.0,1.118,True,hexagonal,6/mmm,191,18.5828,10.0114,1.1783
Ba1 Fe2 S4,3,0.0,0.0,0.1429,0.0,0.0,0.0,0.0,0.0,0.0,0.2857,-0.2857,1.69,0.6009,1.15,0.3963,3.0,1.0302,True,tetragonal,4/m,87,21.265,4.2087,0.8508
Cu2 H2,2,0.0,0.0,0.0,0.0,0.0,0.0,0.0,0.0,0.0,0.5,0.5,0.3,0.15,1.1,0.55,3.0,1.5,True,hexagonal,6mm,186,8.031,6.6738,0.6232
Ni2 Sb4,2,0.0,0.0,0.0,0.0,0.0,0.0,0.6667,0.0,0.0,0.3333,-1.3333,0.14,0.066,0.1,0.0471,1.0,0.4714,True,orthorhombic,mmm,58,21.493,7.783,0.6134
Fe4 P12 Yb1,3,0.0,0.0,0.0,0.0,0.0,0.0588,0.0,0.0,0.0588,0.2353,-1.4706,2.19,0.5167,0.75,0.2272,5.0,1.194,True,cubic,m-3,204,13.8565,5.4146,1.0
Cr4 O28 P8 Tl4,4,0.0,0.0,0.0,0.6364,0.0,0.0,0.0,0.0,0.0,0.0909,-1.4545,1.82,0.7522,1.3,0.414,4.0,1.2129,True,monoclinic,2/m,14,14.0225,4.6326,0.7538
Ca4 O16 S4,3,0.0,0.0,0.1667,0.6667,0.0,0.0,0.0,0.0,0.0,0.0,-1.3333,2.44,0.9017,1.2,0.4422,2.0,0.7638,True,monoclinic,2/m,14,12.3714,3.0456,0.9204
H8 Hg4 O20 Se4,4,0.0,0.0,0.0,0.6667,0.0,0.0,0.0,0.0,0.0,0.1111,-1.4444,1.44,0.6119,1.25,0.3793,5.0,1.499,True,monoclinic,2/m,14,12.8463,5.1929,0.9534
C12 Cr28,2,0.0,0.0,0.0,0.0,0.0,0.0,0.0,0.0,0.0,0.7,0.9,0.89,0.4078,0.7,0.3208,2.0,0.9165,True,orthorhombic,mmm,62,9.4168,7.0536,0.3743
N6 Rb2,2,0.0,0.25,0.0,0.0,0.0,0.0,0.0,0.0,0.0,0.0,-2.0,2.22,0.9613,1.7,0.7361,3.0,1.299,True,tetragonal,4/mmm,140,19.8039,2.6724,1.0
F16 K4 Sc4,3,0.0,0.1667,0.0,0.0,0.6667,0.0,0.0,0.0,0.0,0.1667,0.0,3.16,1.3712,1.7,0.6823,2.0,0.9428,True,monoclinic,2/m,12,17.5952,2.5174,0.305
O4 S8 Y8,3,0.0,0.0,0.0,0.2,0.0,0.0,0.0,0.0,0.0,0.4,0.0,2.22,0.8657,1.2,0.48,3.0,1.2,True,monoclinic,2/m,14,19.6174,4.3668,0.8297
Ba4 Mg8 O32 V8,4,0.0,0.0,0.2308,0.6154,0.0,0.0,0.0,0.0,0.0,0.1538,-0.0,2.55,1.0288,1.55,0.5067,4.0,1.1867,True,tetragonal,4/mmm,142,13.1695,4.0331,0.8704
Ba1 Ni1 O5 Pr2,4,0.0,0.0,0.1111,0.5556,0.0,0.2222,0.0,0.0,0.2222,0.1111,-0.0,2.55,1.1108,1.55,0.6263,6.0,2.4944,True,orthorhombic,mmm,71,15.4404,6.6658,0.5588
Cu2 In1 Mn1,3,0.0,0.0,0.0,0.0,0.0,0.0,0.0,0.0,0.0,0.75,2.25,0.35,0.1429,0.2,0.082,1.0,0.433,True,cubic,m-3m,225,14.7525,8.3533,1.0
Al8 B4 Co2 O20,4,0.0,0.0,0.0,0.5882,0.0,0.0,0.1176,0.0,0.0,0.0588,-0.0,1.83,0.8305,0.75,0.2976,2.0,0.5882,True,monoclinic,2/m,14,8.581,3.9667,0.4574
Li4 Nb8 O48 P12,4,0.0,0.0556,0.0,0.6667,0.0,0.0,0.0,0.0,0.0,0.1111,-1.2222,2.46,0.8191,0.85,0.322,3.0,0.9574,True,monoclinic,2/m,14,13.7479,3.2053,0.7137
Ni6 Sn2,2,0.0,0.0,0.0,0.0,0.0,0.0,0.0,0.0,0.0,0.75,0.5,0.05,0.0217,0.1,0.0433,1.0,0.433,True,hexagonal,6/mmm,194,12.9213,9.471,1.2506
Sn1,1,0.0,0.0,0.0,0.0,0.0,0.0,0.0,0.0,0.0,0.0,-4.0,0.0,0.0,0.0,0.0,0.0,0.0,True,tetragonal,4/mmm,139,27.8234,7.0848,1.0
Cr30 P19 Zr2,3,0.0,0.0,0.0,0.0,0.0,0.0,0.0,0.0,0.0,0.6275,0.8039,0.86,0.2736,0.55,0.2,2.0,0.5483,True,hexagonal,-6,174,12.2454,6.1975,4.5532