formula,numberOfSpecies,fracActinoid,fracAlkali,fracAlkaline,fracChalcogen,fracHalogen,fracLanthanoid,fracMetalloid,fracNobleGas,fracRareEarth,fracTransitionMetal,electronsPerAtom,electronegativityRange,electronegativityStd,radiiRange,radiiStd,rowRange,rowStd,ordered,crystalSystem,pointGroup,spaceGroupNumber,volumePerSite,density,c_a
Gd2 O2 S1,3,0.0,0.0,0.0,0.4,0.0,0.4,0.0,0.0,0.4,0.0,0.0,2.24,1.0071,1.2,0.5426,6.0,2.8,True,trigonal,-3m,164,17.381,7.2334,0.5784
Ce4 O28 P8,3,0.0,0.0,0.0,0.7,0.0,0.1,0.0,0.0,0.1,0.0,-1.7,2.32,0.7864,1.25,0.3824,6.0,1.7776,True,cubic,m-3,205,17.6606,2.9529,1.0
Cu18 Mg4 Yb2,3,0.0,0.0,0.1667,0.0,0.0,0.0833,0.0,0.0,0.0833,0.75,2.0833,1.9,0.5413,0.4,0.117,5.0,1.2134,True,hexagonal,6/mmm,194,14.4771,7.5852,0.3074
Au2 Si2 Y2,3,0.0,0.0,0.0,0.0,0.0,0.0,0.3333,0.0,0.0,0.6667,0.6667,1.32,0.539,0.7,0.2896,3.0,1.2472,True,hexagonal,6mm,186,20.7454,8.3768,0.5658
Fe6 Pt2,2,0.0,0.0,0.0,0.0,0.0,0.0,0.0,0.0,0.0,1.0,2.0,0.45,0.1949,0.05,0.0217,2.0,0.866,True,tetragonal,4/mmm,123,13.1548,11.4434,1.0
In1 N1 Pr3,3,0.0,0.0,0.0,0.0,0.0,0.6,0.0,0.0,0.6,0.0,1.8,1.91,0.743,1.2,0.4648,6.0,2.4,True,cubic,m-3m,221,26.337,6.955,1.0
Co12 Mo12 N4,3,0.0,0.0,0.0,0.0,0.0,0.0,0.0,0.0,0.0,0.8571,2.1429,1.16,0.3797,0.8,0.2665,3.0,0.9897,True,cubic,m-3m,227,12.0464,9.4252,1.0
Br8 Te16,2,0.0,0.0,0.0,0.6667,0.3333,0.0,0.6667,0.0,0.0,0.0,-1.6667,0.86,0.4054,0.25,0.1179,1.0,0.4714,True,orthorhombic,mmm,62,37.7432,4.9144,0.2424
Bi2 Cu2 O2 Se2,4,0.0,0.0,0.0,0.5,0.0,0.0,0.0,0.0,0.0,0.25,0.25,1.54,0.6071,1.0,0.3683,4.0,1.4142,True,tetragonal,4/mmm,129,17.6819,8.6278,0.4356
Er1 Ga4 V2,3,0.0,0.0,0.0,0.0,0.0,0.1429,0.0,0.0,0.1429,0.2857,3.5714,0.57,0.195,0.45,0.1532,4.0,1.3997,True,tetragonal,4/mmm,139,16.3617,7.9457,0.979
Cu4 In1 Mg1,3,0.0,0.0,0.1667,0.0,0.0,0.0,0.0,0.0,0.0,0.6667,2.1667,0.59,0.2154,0.2,0.0837,2.0,0.5774,True,cubic,-43m,216,14.691,7.4093,1.0
Pd12 U4,2,0.25,0.0,0.0,0.0,0.0,0.0,0.0,0.0,0.25,0.75,3.0,0.82,0.3551,0.35,0.1516,4.0,1.7321,True,hexagonal,6/mmm,194,17.9358,12.8988,0.6045
Cu3 Sc3 Si3,3,0.0,0.0,0.0,0.0,0.0,0.0,0.3333,0.0,0.0,0.6667,0.3333,0.54,0.2546,0.5,0.2041,1.0,0.4714,True,hexagonal,-6m2,189,15.6136,4.8421,1.6248
C1 Ce1 Cr2 Si2,4,0.0,0.0,0.0,0.0,0.0,0.1667,0.3333,0.0,0.1667,0.3333,-0.5,1.43,0.4251,1.15,0.354,6.0,1.9149,True,tetragonal,4/mmm,123,13.9304,6.2043,0.7575
Cr6 Ru2,2,0.0,0.0,0.0,0.0,0.0,0.0,0.0,0.0,0.0,1.0,3.0,0.54,0.2338,0.1,0.0433,1.0,0.433,True,cubic,m-3m,223,12.4278,8.5867,1.0
Ge4 S4,2,0.0,0.0,0.0,0.0,0.0,0.0,0.5,0.0,0.0,0.0,-3.0,0.57,0.285,0.25,0.125,1.0,0.5,True,orthorhombic,mmm,62,21.9832,3.9545,0.3404
Cu4 Te2,2,0.0,0.0,0.0,0.3333,0.0,0.0,0.3333,0.0,0.0,0.6667,0.6667,0.2,0.0943,0.05,0.0236,1.0,0.4714,True,hexagonal,6/mmm,191,22.79,6.1858,0.505
S24 Sc4 U12,3,0.3,0.0,0.0,0.0,0.0,0.0,0.0,0.0,0.3,0.1,0.9,1.22,0.5904,0.75,0.3515,6.0,2.7,True,orthorhombic,mmm,58,20.5665,7.6818,0.2299
Li2 Sb2 Se4,3,0.0,0.25,0.0,0.5,0.0,0.0,0.25,0.0,0.0,0.0,-1.5,1.57,0.641,0.3,0.15,3.0,1.0897,True,tetragonal,4/mmm,141,23.3681,5.0918,1.1439
Lu12 Ni4 Sn2,3,0.0,0.0,0.0,0.0,0.0,0.6667,0.0,0.0,0.6667,0.2222,2.0,0.69,0.3099,0.4,0.175,2.0,0.8315,True,orthorhombic,mmm,71,23.7331,9.9968,1.0
O18 Rb4 Si6 Sn2,4,0.0,0.1333,0.0,0.6,0.0,0.0,0.2,0.0,0.0,0.0,-2.1333,2.62,0.9819,1.75,0.5953,3.0,1.1662,True,hexagonal,6/m,176,14.8321,3.8654,0.6961
Hg2 Te2,2,0.0,0.0,0.0,0.5,0.0,0.0,0.5,0.0,0.0,0.5,-0.5,0.1,0.05,0.1,0.05,1.0,0.5,True,orthorhombic,mmm,63,30.0775,9.0595,0.7899
Rb2 Se1,2,0.0,0.6667,0.0,0.3333,0.0,0.0,0.0,0.0,0.0,0.0,0.0,1.73,0.8155,1.2,0.5657,1.0,0.4714,True,cubic,m-3m,225,44.6522,3.0977,1.0
Li2 Mn4 O20 P6,4,0.0,0.0625,0.0,0.625,0.0,0.0,0.0,0.0,0.0,0.125,-1.5,2.46,0.8531,0.85,0.3211,2.0,0.7043,True,monoclinic,2/m,11,11.884,3.2289,0.51
Er4 Mg8,2,0.0,0.0,0.6667,0.0,0.0,0.3333,0.0,0.0,0.3333,0.0,2.3333,0.07,0.033,0.25,0.1179,5.0,2.357,True,hexagonal,6/mmm,194,25.5514,4.6763,0.6164
Dy4 S8 Sm2,3,0.0,0.0,0.0,0.0,0.0,0.4286,0.0,0.0,0.4286,0.0,0.1429,1.41,0.6814,0.85,0.3889,5.0,2.4744,True,tetragonal,-42m,122,20.8487,6.8681,1.0
Ba4 Ir8 Si8,3,0.0,0.0,0.2,0.0,0.0,0.0,0.4,0.0,0.0,0.4,0.0,1.31,0.483,1.05,0.3865,3.0,1.4697,True,monoclinic,2/m,14,21.0403,9.1223,0.8492
Ge8 Li18,2,0.0,0.6923,0.0,0.0,0.0,0.0,0.3077,0.0,0.0,0.0,-0.5385,1.03,0.4754,0.2,0.0923,2.0,0.9231,True,orthorhombic,mmm,63,15.7545,2.8623,0.1872
Cs2 S8 Sb4,3,0.0,0.1429,0.0,0.0,0.0,0.0,0.2857,0.0,0.0,0.0,-1.8571,1.79,0.6101,1.6,0.5441,3.0,1.1952,True,triclinic,-1,2,31.7983,3.765,0.7168
Fe3 Ge1,2,0.0,0.0,0.0,0.0,0.0,0.0,0.25,0.0,0.0,0.75,0.5,0.18,0.0779,0.15,0.065,0.0,0.0,True,cubic,m-3m,221,12.0076,8.3035,1.0
I8 Se2 Tl12,3,0.0,0.0,0.0,0.0909,0.3636,0.0,0.0,0.0,0.0,0.0,-0.0,1.04,0.5078,0.75,0.282,2.0,0.6556,True,tetragonal,4/mmm,128,40.9412,6.6844,0.9512
O2 V1,2,0.0,0.0,0.0,0.6667,0.0,0.0,0.0,0.0,0.0,0.3333,0.3333,1.81,0.8532,0.75,0.3536,2.0,0.9428,True,trigonal,-3m,166,12.1724,3.7715,1.0
Gd2 Pt4,2,0.0,0.0,0.0,0.0,0.0,0.3333,0.0,0.0,0.3333,0.6667,2.3333,1.08,0.5091,0.45,0.2121,2.0,0.9428,True,cubic,m-3m,227,19.2702,15.7239,1.0
O32 Rb2 Ta15,3,0.0,0.0408,0.0,0.6531,0.0,0.0,0.0,0.0,0.0,0.3061,0.2653,2.62,0.9701,1.75,0.486,4.0,1.8577,True,trigonal,-3,148,13.3293,8.6369,1.0
H2 O16 Rb6 Se4,4,0.0,0.2143,0.0,0.7143,0.0,0.0,0.0,0.0,0.0,0.0,-1.2857,2.62,1.044,2.1,0.7243,4.0,1.3553,True,monoclinic,2/m,15,18.4257,3.4975,0.5833
Dy2 Ge2 Ti2,3,0.0,0.0,0.0,0.0,0.0,0.3333,0.3333,0.0,0.3333,0.3333,1.0,0.79,0.3244,0.5,0.2095,4.0,1.8856,True,tetragonal,4/mmm,129,20.9877,7.4638,0.5283
As1 B1 O4,3,0.0,0.0,0.0,0.6667,0.0,0.0,0.3333,0.0,0.0,0.0,-1.3333,1.4,0.6283,0.55,0.2075,2.0,0.7454,True,tetragonal,-4,82,12.0538,3.4378,0.9701
Na4 Nd4 O48 P16,4,0.0,0.0556,0.0,0.6667,0.0,0.0556,0.0,0.0,0.0556,0.0,-1.7778,2.51,0.8331,1.25,0.3895,6.0,1.38,True,monoclinic,2/m,14,13.6634,3.2619,0.5476
Pb2 Pt2,2,0.0,0.0,0.0,0.0,0.0,0.0,0.0,0.0,0.0,0.5,2.0,0.05,0.025,0.45,0.225,0.0,0.0,True,hexagonal,6/mmm,194,23.484,14.2226,0.5358
Cl4 K2 O2 Os1,4,0.0,0.2222,0.0,0.2222,0.4444,0.0,0.0,0.0,0.0,0.1111,-0.2222,2.62,1.009,1.6,0.5666,4.0,1.1547,True,tetragonal,4/mmm,139,25.4954,3.2004,1.0
Ba6 Na2 Nb2 O12,4,0.0,0.0909,0.2727,0.5455,0.0,0.0,0.0,0.0,0.0,0.0909,0.0,2.55,1.2099,1.55,0.6934,4.0,1.7768,True,trigonal,-3m,167,17.2393,5.463,1.0
Al8 O72 P24,3,0.0,0.0,0.0,0.6923,0.0,0.0,0.0,0.0,0.0,0.0,-1.8462,1.83,0.6587,0.65,0.2217,1.0,0.4615,True,cubic,-43m,220,12.9861,2.5958,1.0
Ca8 Ga16 O32,3,0.0,0.0,0.1429,0.5714,0.0,0.0,0.0,0.0,0.0,0.0,0.0,2.44,0.9729,1.2,0.4558,2.0,0.9897,True,monoclinic,2/m,14,13.7753,4.1936,0.7526
Ni1 Sn1 Zr1,3,0.0,0.0,0.0,0.0,0.0,0.0,0.0,0.0,0.0,0.6667,0.6667,0.63,0.2859,0.2,0.0816,1.0,0.4714,True,cubic,-43m,216,21.462,6.928,1.0
In1 Ni1,2,0.0,0.0,0.0,0.0,0.0,0.0,0.0,0.0,0.0,0.5,2.5,0.13,0.065,0.2,0.1,1.0,0.5,True,cubic,m-3m,221,15.5872,9.2423,1.0
Mn2 Pd6,2,0.0,0.0,0.0,0.0,0.0,0.0,0.0,0.0,0.0,1.0,2.0,0.65,0.2815,0.0,0.0,1.0,0.433,True,tetragonal,4/mmm,139,15.2415,10.1921,0.4726
Pt12 Sr28,2,0.0,0.0,0.7,0.0,0.0,0.0,0.0,0.0,0.0,0.3,2.0,1.33,0.6095,0.65,0.2979,1.0,0.4583,True,orthorhombic,mmm,62,35.3343,5.6328,0.293
As4 Li4 Ni4 O16,4,0.0,0.1429,0.0,0.5714,0.0,0.0,0.1429,0.0,0.0,0.1429,-1.1429,2.46,0.9291,0.85,0.3639,2.0,0.9035,True,orthorhombic,mmm,62,11.0077,4.4082,0.4719
F3 K1 Pd1,3,0.0,0.2,0.0,0.0,0.6,0.0,0.0,0.0,0.0,0.2,0.0,3.16,1.2863,1.7,0.6853,3.0,1.2649,True,cubic,m-3m,221,16.0043,4.2024,1.0
C2 Cl28 Ti12,3,0.0,0.0,0.0,0.0,0.6667,0.0,0.0,0.0,0.0,0.2857,0.2857,1.62,0.725,0.7,0.2,2.0,0.526,True,orthorhombic,mmm,64,23.2074,2.7106,0.8398
Cu4 Ge4 Ho3,3,0.0,0.0,0.0,0.0,0.0,0.2727,0.3636,0.0,0.2727,0.3636,0.0909,0.78,0.3263,0.5,0.2049,4.0,1.7814,True,orthorhombic,mmm,71,17.5678,8.9326,0.5244
Li1 S2 V1,3,0.0,0.25,0.0,0.0,0.0,0.0,0.0,0.0,0.0,0.25,0.5,1.6,0.6777,0.45,0.2031,2.0,0.7071,True,trigonal,-3m,164,15.8702,3.1916,0.5755
La4 S10 Sn2,3,0.0,0.0,0.0,0.0,0.0,0.25,0.0,0.0,0.25,0.25,-1.0,1.48,0.6288,0.95,0.4058,5.0,2.1213,True,orthorhombic,mmm,55,22.8311,5.0625,0.3558
P2 Sr1 Zn2,3,0.0,0.0,0.2,0.0,0.0,0.0,0.0,0.0,0.0,0.4,0.0,1.24,0.457,1.0,0.3652,2.0,0.7483,True,trigonal,-3m,164,20.9082,4.4537,0.5771
Ca4 O16 Yb8,3,0.0,0.0,0.1429,0.5714,0.0,0.2857,0.0,0.0,0.2857,0.0,0.0,3.44,1.5681,1.2,0.5776,6.0,2.6186,True,orthorhombic,mmm,62,13.3639,7.9906,0.2891
O24 Pb8 S16,3,0.0,0.0,0.0,0.5,0.0,0.0,0.0,0.0,0.0,0.0,-1.3333,1.11,0.479,1.2,0.4269,4.0,1.4142,True,orthorhombic,mmm,61,17.7425,4.9811,0.4306
Al4 Sb12 Sr12,3,0.0,0.0,0.4286,0.0,0.0,0.0,0.4286,0.0,0.0,0.0,0.0,1.1,0.5107,0.75,0.3041,2.0,0.6999,True,orthorhombic,mmm,64,34.9998,4.4402,0.5107
Ga1 Se8 Ta4,3,0.0,0.0,0.0,0.6154,0.0,0.0,0.0,0.0,0.0,0.3077,0.5385,1.05,0.4868,0.3,0.1365,2.0,0.9231,True,cubic,-43m,216,22.3236,8.1549,1.0
Ge2 La1 Pd2,3,0.0,0.0,0.0,0.0,0.0,0.2,0.4,0.0,0.2,0.6,-0.2,1.1,0.4109,0.7,0.2588,4.0,1.4697,True,tetragonal,4/mmm,139,19.8867,8.3003,0.7405
Cr2 F2 Li4 O8 P2,5,0.0,0.2222,0.0,0.4444,0.1111,0.0,0.0,0.0,0.0,0.1111,-0.7778,3.0,1.1068,0.95,0.3921,2.0,0.6667,True,triclinic,1,1,11.2027,2.962,0.6986
Ce2 Mn1 N3,3,0.0,0.0,0.0,0.0,0.0,0.3333,0.0,0.0,0.3333,0.1667,-0.1667,1.92,0.8998,1.2,0.546,6.0,2.6874,True,orthorhombic,mmm,71,13.5793,7.6874,0.5157
Cs2 F6 Rb1 Y1,4,0.0,0.3,0.0,0.0,0.6,0.0,0.0,0.0,0.0,0.1,0.0,3.19,1.5108,2.1,0.9236,4.0,1.7436,True,cubic,m-3m,225,23.6423,3.8923,1.0
Al1 C1 Pt3,3,0.0,0.0,0.0,0.0,0.0,0.0,0.0,0.0,0.0,0.6,1.0,0.94,0.313,0.65,0.253,4.0,1.7436,True,cubic,m-3m,221,14.661,14.1407,1.0
N3 Na1,2,0.0,0.25,0.0,0.0,0.0,0.0,0.0,0.0,0.0,0.0,-2.0,2.11,0.9137,1.15,0.498,1.0,0.433,True,trigonal,-3m,166,15.0088,1.7981,1.0
Pd1 Te2,2,0.0,0.0,0.0,0.6667,0.0,0.0,0.6667,0.0,0.0,0.3333,-0.6667,0.1,0.0471,0.0,0.0,0.0,0.0,True,trigonal,-3m,164,25.2919,7.914,0.7961
S2 W1,2,0.0,0.0,0.0,0.0,0.0,0.0,0.0,0.0,0.0,0.3333,0.0,0.22,0.1037,0.35,0.165,3.0,1.4142,True,trigonal,3m,160,20.9325,6.557,1.0
Cu5 Yb1,2,0.0,0.0,0.0,0.0,0.0,0.1667,0.0,0.0,0.1667,0.8333,2.1667,1.9,0.7081,0.4,0.1491,4.0,1.4907,True,hexagonal,6/mmm,191,14.5525,9.3333,1.2165
Br12 Na6 Sc2,3,0.0,0.3,0.0,0.0,0.6,0.0,0.0,0.0,0.0,0.1,0.0,2.03,0.9492,0.65,0.299,1.0,0.4583,True,trigonal,-3m,163,31.4394,3.1339,0.559
Cs4 Ge6 O18 Ti2,4,0.0,0.1333,0.0,0.6,0.0,0.0,0.2,0.0,0.0,0.0667,-1.6,2.65,0.9996,2.0,0.6768,4.0,1.436,True,hexagonal,6/m,176,16.3015,4.5879,0.6939
Mo8 O56 P8 Te4 Tl8,5,0.0,0.0,0.0,0.7143,0.0,0.0,0.0476,0.0,0.0,0.0952,-1.2381,1.82,0.6908,1.3,0.4433,4.0,1.4444,True,orthorhombic,mmm,60,15.9977,5.0129,0.7292
Fe26 Nd12 Sn2,3,0.0,0.0,0.0,0.0,0.0,0.3,0.0,0.0,0.3,0.65,2.0,0.82,0.3217,0.45,0.2049,4.0,1.8131,True,tetragonal,4/mmm,140,19.123,7.425,0.6176
Ni1 Ti1,2,0.0,0.0,0.0,0.0,0.0,0.0,0.0,0.0,0.0,1.0,3.0,0.37,0.185,0.05,0.025,0.0,0.0,True,cubic,m-3m,221,13.5678,6.5209,1.0
Cu3 Eu1 O8 Pb2 Sr2,5,0.0,0.0,0.125,0.5,0.0,0.0625,0.0,0.0,0.0625,0.1875,0.0,3.44,1.0971,1.4,0.5766,6.0,1.8666,True,tetragonal,4/mmm,123,14.8867,7.3915,0.2384
C2 Sn2 Zr4,3,0.0,0.0,0.0,0.0,0.0,0.0,0.0,0.0,0.0,0.5,0.0,1.22,0.5074,0.85,0.356,3.0,1.299,True,hexagonal,6/mmm,194,18.2514,7.1231,0.2282
C60 Cs6,2,0.0,0.0909,0.0,0.0,0.0,0.0,0.0,0.0,0.0,0.0,-3.5455,1.76,0.506,1.9,0.5462,4.0,1.1499,True,cubic,m-3,204,13.1487,2.9048,1.0
Ba2 Be4 O14 Si4,4,0.0,0.0,0.25,0.5833,0.0,0.0,0.1667,0.0,0.0,0.0,-1.3333,2.55,0.9541,1.55,0.4393,4.0,1.118,True,orthorhombic,mm2,31,11.5718,3.8687,0.4009
Li2 O10 V4,3,0.0,0.125,0.0,0.625,0.0,0.0,0.0,0.0,0.0,0.25,0.125,2.46,0.9989,0.85,0.3803,2.0,0.866,True,orthorhombic,mmm,59,12.2542,3.1983,0.3165
As4 Nb2,2,0.0,0.0,0.0,0.0,0.0,0.0,0.6667,0.0,0.0,0.3333,-0.3333,0.58,0.2734,0.3,0.1414,1.0,0.4714,True,monoclinic,2/m,12,18.4954,7.2648,0.4793
Er8 Te12,2,0.0,0.0,0.0,0.6,0.0,0.4,0.6,0.0,0.4,0.0,0.0,0.86,0.4213,0.35,0.1715,3.0,1.4697,True,orthorhombic,mmm,70,34.575,6.8901,0.5488
K2 O16 W4 Yb2,4,0.0,0.0833,0.0,0.6667,0.0,0.0833,0.0,0.0,0.0833,0.1667,-0.3333,3.44,1.1328,1.6,0.5402,6.0,2.0548,True,monoclinic,2/m,15,14.3188,6.8404,1.0419
Ca8 N12 P4,3,0.0,0.0,0.3333,0.0,0.0,0.0,0.0,0.0,0.0,0.0,-1.3333,2.04,0.9124,1.15,0.5159,2.0,0.8975,True,orthorhombic,mmm,64,12.7948,3.3127,0.4616
Co4 Na14 O12,3,0.0,0.4667,0.0,0.4,0.0,0.0,0.0,0.0,0.0,0.1333,-0.0667,2.51,1.167,1.2,0.558,2.0,0.6799,True,monoclinic,2/m,15,14.7041,2.8217,0.5466
Sn3 Th1,2,0.25,0.0,0.0,0.0,0.0,0.0,0.0,0.0,0.25,0.0,-2.0,0.66,0.2858,0.35,0.1516,4.0,1.7321,True,cubic,m-3m,221,27.0674,9.0208,1.0
Er4 Li4 O8,3,0.0,0.25,0.0,0.5,0.0,0.25,0.0,0.0,0.25,0.0,0.0,2.46,1.1686,1.15,0.5111,6.0,2.5981,True,monoclinic,2/m,14,12.8204,6.6769,0.9957
Ce2 Co2 Si4,3,0.0,0.0,0.0,0.0,0.0,0.25,0.5,0.0,0.25,0.25,-0.75,0.78,0.335,0.75,0.3062,5.0,2.0616,True,orthorhombic,mmm,63,16.8019,6.3059,0.4741
Fe2 O10 Ti4,3,0.0,0.0,0.0,0.625,0.0,0.0,0.0,0.0,0.0,0.375,0.0,1.9,0.877,0.8,0.3873,2.0,0.9682,True,orthorhombic,mmm,63,11.9454,4.024,0.3673
Fe4 O6,2,0.0,0.0,0.0,0.6,0.0,0.0,0.0,0.0,0.0,0.4,-0.4,1.61,0.7887,0.8,0.3919,2.0,0.9798,True,trigonal,-3m,167,10.543,5.0302,1.0
Cl4 Co1 Li2,3,0.0,0.2857,0.0,0.0,0.5714,0.0,0.0,0.0,0.0,0.1429,0.0,2.18,0.9709,0.45,0.2085,2.0,0.6389,True,orthorhombic,mmm,65,19.4422,2.6187,0.5752
Mg5 Pt10 Si16,3,0.0,0.0,0.1613,0.0,0.0,0.0,0.5161,0.0,0.0,0.3226,-1.0968,0.97,0.3193,0.4,0.1578,3.0,1.4024,True,cubic,-43m,216,16.4939,8.1896,1.0
C8 U4 V4,3,0.25,0.0,0.0,0.0,0.0,0.0,0.0,0.0,0.25,0.25,0.75,1.17,0.5299,1.05,0.4479,7.0,2.8614,True,orthorhombic,mmm,62,11.9527,10.8707,0.2961
Bi8 O14,2,0.0,0.0,0.0,0.6364,0.0,0.0,0.0,0.0,0.0,0.0,-0.1818,1.42,0.6831,1.0,0.481,4.0,1.9242,True,triclinic,-1,2,16.0634,8.9082,0.863
Cu4 O14 P4,3,0.0,0.0,0.0,0.6364,0.0,0.0,0.0,0.0,0.0,0.1818,-1.4545,1.54,0.6767,0.75,0.296,2.0,0.782,True,monoclinic,2/m,15,11.7021,3.8834,0.5817
Ca2 Sn2 Zn2,3,0.0,0.0,0.3333,0.0,0.0,0.0,0.0,0.0,0.0,0.3333,0.0,0.96,0.4,0.45,0.1929,1.0,0.4714,True,hexagonal,6mm,186,24.2313,5.1213,0.6173