formula,numberOfSpecies,fracActinoid,fracAlkali,fracAlkaline,fracChalcogen,fracHalogen,fracLanthanoid,fracMetalloid,fracNobleGas,fracRareEarth,fracTransitionMetal,electronsPerAtom,electronegativityRange,electronegativityStd,radiiRange,radiiStd,rowRange,rowStd,ordered,crystalSystem,pointGroup,spaceGroupNumber,volumePerSite,density,c_a
As2 B2 Ba6 O6,4,0.0,0.0,0.375,0.375,0.0,0.0,0.25,0.0,0.0,0.0,0.0,2.55,1.105,1.55,0.6946,4.0,1.854,True,hexagonal,6/mmm,194,23.7882,4.7617,0.3988
Ba1 Mo6 S8,3,0.0,0.0,0.0667,0.0,0.0,0.0,0.0,0.0,0.0,0.4,0.6667,1.69,0.4268,1.15,0.3214,3.0,1.0954,True,triclinic,-1,2,20.2861,5.2906,0.98
Al14 Ca11 O32,3,0.0,0.0,0.193,0.5614,0.0,0.0,0.0,0.0,0.0,0.0,0.0,2.44,1.0604,1.2,0.4781,2.0,0.7865,True,monoclinic,2,5,15.5767,2.4885,1.0001
Mg1 S1,2,0.0,0.0,0.5,0.0,0.0,0.0,0.0,0.0,0.0,0.0,0.0,1.27,0.635,0.5,0.25,0.0,0.0,True,cubic,-43m,216,23.1264,2.0238,1.0
Al6 B8 Nd2 O24,4,0.0,0.0,0.0,0.6,0.0,0.05,0.2,0.0,0.05,0.0,0.0,2.3,0.843,1.25,0.3315,6.0,1.3219,True,monoclinic,2/m,15,9.4551,4.0431,0.5308
Cd8 O96 Rb16 Si40,4,0.0,0.1,0.0,0.6,0.0,0.0,0.25,0.0,0.0,0.05,-2.0,2.62,0.945,1.75,0.5414,3.0,1.0536,True,orthorhombic,mmm,61,16.7074,3.06,0.9644
Si16 Zr20,2,0.0,0.0,0.0,0.0,0.0,0.0,0.4444,0.0,0.0,0.5556,0.4444,0.57,0.2832,0.45,0.2236,2.0,0.9938,True,tetragonal,422,92,18.6377,5.6275,0.5476
B2 La2 N2 Ni2,4,0.0,0.0,0.0,0.0,0.0,0.25,0.25,0.0,0.25,0.5,1.25,1.94,0.6891,1.3,0.5025,6.0,2.4495,True,tetragonal,4/mmm,129,13.0487,7.076,0.5101
Lu2 O8 V2,3,0.0,0.0,0.0,0.6667,0.0,0.1667,0.0,0.0,0.1667,0.1667,0.0,2.17,0.9438,1.15,0.4625,4.0,1.5275,True,tetragonal,4/m,88,11.5821,6.9274,0.7645
K2 Mn2 P2,3,0.0,0.3333,0.0,0.0,0.0,0.0,0.0,0.0,0.0,0.3333,0.0,1.37,0.5597,1.2,0.4989,1.0,0.4714,True,tetragonal,4/mmm,129,25.1251,2.754,0.362
F12 Pb2 Zr2,3,0.0,0.0,0.0,0.0,0.75,0.0,0.0,0.0,0.0,0.125,0.0,2.65,0.964,1.3,0.5126,4.0,1.536,True,orthorhombic,mmm,67,14.7896,5.7881,0.8022
Er1 S1,2,0.0,0.0,0.0,0.0,0.0,0.5,0.0,0.0,0.5,0.0,0.5,1.34,0.67,0.75,0.375,5.0,2.5,True,cubic,m-3m,225,20.3947,8.1145,1.0
As4 Cd2 Si2,3,0.0,0.0,0.0,0.0,0.0,0.0,0.75,0.0,0.0,0.25,-2.0,0.49,0.2063,0.45,0.1816,2.0,0.7071,True,tetragonal,-42m,122,24.8415,4.852,0.8572
Dy2 O8 P2,3,0.0,0.0,0.0,0.6667,0.0,0.1667,0.0,0.0,0.1667,0.0,-1.3333,2.22,0.8645,1.15,0.4247,6.0,2.1922,True,tetragonal,4/mmm,141,12.2511,5.8163,1.0
Ag1 Li1,2,0.0,0.5,0.0,0.0,0.0,0.0,0.0,0.0,0.0,0.5,1.0,0.95,0.475,0.15,0.075,3.0,1.5,True,cubic,m-3m,221,16.2617,5.8618,1.0
Ir1 N6 Na3 O12,4,0.0,0.1364,0.0,0.5455,0.0,0.0,0.0,0.0,0.0,0.0455,-1.6364,2.51,0.8455,1.2,0.4218,4.0,0.8732,True,trigonal,-3m,166,12.9028,3.1426,1.0
Ga1 Se8 V4,3,0.0,0.0,0.0,0.6154,0.0,0.0,0.0,0.0,0.0,0.3077,0.5385,0.92,0.4324,0.2,0.0933,0.0,0.0,True,cubic,-43m,216,20.6593,5.5965,1.0
Ni4 O8 Sr1,3,0.0,0.0,0.0769,0.6154,0.0,0.0,0.0,0.0,0.0,0.3077,-0.4615,2.49,0.871,1.4,0.4575,3.0,1.0987,True,trigonal,-3m,166,13.0389,4.4122,1.0
Mg3 Ni20 P6,3,0.0,0.0,0.1034,0.0,0.0,0.0,0.0,0.0,0.0,0.6897,0.9655,0.88,0.2312,0.5,0.1563,1.0,0.4626,True,cubic,m-3m,225,11.764,6.9731,1.0
Cu1 Zr2,2,0.0,0.0,0.0,0.0,0.0,0.0,0.0,0.0,0.0,1.0,3.3333,0.57,0.2687,0.2,0.0943,1.0,0.4714,True,tetragonal,4/mmm,139,19.5394,6.9685,0.5334
B2 Be8,2,0.0,0.0,0.8,0.0,0.0,0.0,0.2,0.0,0.0,0.0,2.2,0.47,0.188,0.2,0.08,0.0,0.0,True,tetragonal,4/mmm,129,7.8528,1.9818,0.4773
O4 Rb2 Sc2,3,0.0,0.25,0.0,0.5,0.0,0.0,0.0,0.0,0.0,0.25,0.0,2.62,1.1904,1.75,0.7369,3.0,1.299,True,hexagonal,6/mmm,194,15.0472,4.481,0.255
Au4 Cl32 P4,3,0.0,0.0,0.0,0.0,0.8,0.0,0.0,0.0,0.0,0.1,-0.8,0.97,0.3275,0.35,0.105,3.0,0.9,True,orthorhombic,mmm,74,31.9583,2.6581,1.0
Be4 Na8 O16 Si4,4,0.0,0.25,0.125,0.5,0.0,0.0,0.125,0.0,0.0,0.0,-1.0,2.51,1.0946,1.2,0.4911,1.0,0.4841,True,monoclinic,2/m,14,11.151,2.7377,0.4998
O1 Pa1,2,0.5,0.0,0.0,0.5,0.0,0.0,0.0,0.0,0.5,0.0,1.5,1.94,0.97,1.2,0.6,7.0,3.5,True,cubic,m-3m,225,15.0501,13.6282,1.0
Ce2 O2 Sb1,3,0.0,0.0,0.0,0.4,0.0,0.4,0.2,0.0,0.4,0.0,-0.2,2.32,1.0416,1.25,0.5662,6.0,2.6833,True,tetragonal,4/mmm,139,20.493,7.0332,0.5696
B6 Ba1,2,0.0,0.0,0.1429,0.0,0.0,0.0,0.8571,0.0,0.0,0.0,2.8571,1.15,0.4024,1.3,0.4549,4.0,1.3997,True,cubic,m-3m,221,11.2014,4.282,1.0
Ba2 Cu4 O4,3,0.0,0.0,0.2,0.4,0.0,0.0,0.0,0.0,0.0,0.4,0.4,2.55,0.9906,1.55,0.5774,4.0,1.4967,True,tetragonal,4/mmm,141,17.0562,5.7717,0.8887
Bi3 O12 Sr5,3,0.0,0.0,0.25,0.6,0.0,0.0,0.0,0.0,0.0,0.0,-0.25,2.49,1.0744,1.4,0.6245,4.0,1.6815,True,triclinic,-1,2,16.0394,6.5069,0.7027
Ge4 Ho4 Na4 O16,4,0.0,0.1429,0.0,0.5714,0.0,0.1429,0.1429,0.0,0.1429,0.0,-1.1429,2.51,1.0573,1.2,0.5209,6.0,2.0504,True,orthorhombic,mmm,62,14.1504,5.441,0.4636
Mo12 Rb2 Se14,3,0.0,0.0714,0.0,0.5,0.0,0.0,0.0,0.0,0.0,0.4286,0.7857,1.73,0.441,1.2,0.309,1.0,0.5,True,trigonal,-3,148,24.4144,5.897,1.0
Be8 Re4,2,0.0,0.0,0.6667,0.0,0.0,0.0,0.0,0.0,0.0,0.3333,2.6667,0.33,0.1556,0.3,0.1414,4.0,1.8856,True,hexagonal,6/mmm,194,9.8938,11.4258,0.6116
Mn7 O12 Pr1,3,0.0,0.0,0.0,0.6,0.0,0.05,0.0,0.0,0.05,0.35,-0.35,2.31,0.9557,1.25,0.4299,6.0,1.4832,True,monoclinic,2/m,12,10.8934,5.4684,0.9987
Na8 O20 Te8,3,0.0,0.2222,0.0,0.7778,0.0,0.0,0.2222,0.0,0.0,0.0,-1.3333,2.51,1.033,1.2,0.5145,3.0,1.1967,True,monoclinic,2/m,15,16.0639,4.3781,0.4075
Ge2 Se8 Sr4,3,0.0,0.0,0.2857,0.5714,0.0,0.0,0.1429,0.0,0.0,0.0,-1.1429,1.6,0.6983,0.85,0.3765,1.0,0.4518,True,orthorhombic,mm2,40,30.076,4.4463,0.6269
I6 La2,2,0.0,0.0,0.0,0.0,0.75,0.25,0.0,0.0,0.25,0.25,0.0,1.56,0.6755,0.55,0.2382,3.0,1.299,True,orthorhombic,mmm,63,44.1291,4.8882,0.4376
I12 O4 W4,3,0.0,0.0,0.0,0.2,0.6,0.0,0.0,0.0,0.0,0.2,-0.2,1.08,0.3612,0.8,0.3156,4.0,1.3565,True,tetragonal,4/mmm,136,37.8322,5.0963,0.2765
Cl18 K4 Nb6,3,0.0,0.1429,0.0,0.0,0.6429,0.0,0.0,0.0,0.0,0.2143,0.5714,2.34,0.9256,1.2,0.4211,2.0,0.8207,True,monoclinic,2/m,12,27.4979,2.9158,0.9882
Ag1 Cd1,2,0.0,0.0,0.0,0.0,0.0,0.0,0.0,0.0,0.0,1.0,1.5,0.24,0.12,0.05,0.025,0.0,0.0,True,cubic,m-3m,221,19.6377,9.3133,1.0
Ge6 Li6 Te12,3,0.0,0.25,0.0,0.5,0.0,0.0,0.75,0.0,0.0,0.0,-1.75,1.12,0.4734,0.2,0.075,3.0,1.2247,True,triclinic,-1,2,29.3419,4.7365,0.6396
Cd2 Se2,2,0.0,0.0,0.0,0.5,0.0,0.0,0.0,0.0,0.0,0.5,0.0,0.86,0.43,0.4,0.2,1.0,0.5,True,hexagonal,6mm,186,29.9733,5.301,0.6128
Ba4 S8 Sn4,3,0.0,0.0,0.25,0.0,0.0,0.0,0.0,0.0,0.0,0.0,-1.5,1.69,0.6904,1.15,0.4704,3.0,1.299,True,monoclinic,2/m,14,30.6723,4.3333,0.4944
Al8 Cr4 U1,3,0.0769,0.0,0.0,0.0,0.0,0.0,0.0,0.0,0.0769,0.3077,3.2308,0.28,0.0695,0.5,0.1378,6.0,1.5765,True,tetragonal,4/mmm,139,15.1297,5.5879,0.7402
Cu2 Sc2 Sn2,3,0.0,0.0,0.0,0.0,0.0,0.0,0.0,0.0,0.0,0.6667,0.3333,0.6,0.2698,0.25,0.1027,1.0,0.4714,True,hexagonal,6mm,186,19.3487,6.4999,0.6431
Al6 C8 U4,3,0.2222,0.0,0.0,0.0,0.0,0.0,0.0,0.0,0.2222,0.0,0.5556,1.17,0.5196,1.05,0.415,7.0,2.7666,True,hexagonal,6mm,186,12.9635,8.6114,0.1456
Na2 Te1,2,0.0,0.6667,0.0,0.3333,0.0,0.0,0.3333,0.0,0.0,0.0,0.0,1.17,0.5515,0.4,0.1886,2.0,0.9428,True,cubic,m-3m,225,32.8657,2.9234,1.0
Cr2 Hg2 O8,3,0.0,0.0,0.0,0.6667,0.0,0.0,0.0,0.0,0.0,0.3333,-0.6667,1.78,0.7653,0.9,0.4017,4.0,1.5275,True,orthorhombic,mmm,63,16.0313,5.4654,0.7474
S8 Si2 Tl8,3,0.0,0.0,0.0,0.0,0.0,0.0,0.1111,0.0,0.0,0.0,-0.8889,0.96,0.4569,0.9,0.4383,3.0,1.4907,True,monoclinic,m,9,30.1899,5.9518,0.8915
Ba2 Mo1 Nd1 O6,4,0.0,0.0,0.2,0.6,0.0,0.1,0.0,0.0,0.1,0.1,-0.1,2.55,1.1135,1.55,0.6623,6.0,2.1932,True,tetragonal,4/m,87,16.1546,6.2788,0.9902
Pt1 Sn1 Th1,3,0.3333,0.0,0.0,0.0,0.0,0.0,0.0,0.0,0.3333,0.3333,0.6667,0.98,0.408,0.45,0.1929,4.0,1.6997,True,cubic,-43m,216,26.4371,11.4281,1.0
C10 Tb8,2,0.0,0.0,0.0,0.0,0.0,0.4444,0.0,0.0,0.4444,0.0,-0.8889,2.55,1.2671,1.05,0.5217,6.0,2.9814,True,orthorhombic,mmm,55,16.4012,7.8269,0.3066
H32 Mg4 O32 S4,4,0.0,0.0,0.0556,0.4444,0.0,0.0,0.0,0.0,0.0,0.0,-1.3333,2.13,0.6798,1.25,0.3184,2.0,0.6667,True,monoclinic,2/m,14,9.0356,1.9647,0.4404
Au2 O4 Y2,3,0.0,0.0,0.0,0.5,0.0,0.0,0.0,0.0,0.0,0.5,0.5,2.22,0.909,1.2,0.5128,4.0,1.7854,True,hexagonal,6/mmm,194,17.0716,7.7298,0.2948
Au8 Sn16,2,0.0,0.0,0.0,0.0,0.0,0.0,0.0,0.0,0.0,0.3333,-1.6667,0.58,0.2734,0.1,0.0471,1.0,0.4714,True,orthorhombic,mmm,61,25.5515,9.41,0.5787
O2 Sr1,2,0.0,0.0,0.3333,0.6667,0.0,0.0,0.0,0.0,0.0,0.0,-0.6667,2.49,1.1738,1.4,0.66,3.0,1.4142,True,tetragonal,4/mmm,139,14.5148,4.5616,0.8419
Ni2 P2 Zr1,3,0.0,0.0,0.0,0.0,0.0,0.0,0.0,0.0,0.0,0.6,0.4,0.86,0.314,0.55,0.2168,2.0,0.7483,True,tetragonal,4/mmm,139,13.1166,6.8505,0.679
B2 Pt2,2,0.0,0.0,0.0,0.0,0.0,0.0,0.5,0.0,0.0,0.5,2.5,0.24,0.12,0.5,0.25,4.0,2.0,True,hexagonal,6/mmm,194,11.2032,15.2589,1.0263
Bi2 O8 Re2,3,0.0,0.0,0.0,0.6667,0.0,0.0,0.0,0.0,0.0,0.1667,-0.1667,1.54,0.6985,1.0,0.4187,4.0,1.8856,True,orthorhombic,mmm,63,13.834,9.1863,0.4882
Ni9 Ti9,2,0.0,0.0,0.0,0.0,0.0,0.0,0.0,0.0,0.0,1.0,3.0,0.37,0.185,0.05,0.025,0.0,0.0,True,trigonal,-3,147,13.555,6.527,1.3684
Mn2 Rb4 Te4,3,0.0,0.4,0.0,0.4,0.0,0.0,0.4,0.0,0.0,0.2,0.0,1.28,0.5736,0.95,0.4654,1.0,0.4,True,orthorhombic,mmm,72,41.0689,3.8903,0.7867
Au7 Rb3,2,0.0,0.3,0.0,0.0,0.0,0.0,0.0,0.0,0.0,0.7,2.4,1.72,0.7882,1.0,0.4583,1.0,0.4583,True,orthorhombic,mmm,65,28.8967,9.3964,0.7691
Ba4 Nd8 O16,3,0.0,0.0,0.1429,0.5714,0.0,0.2857,0.0,0.0,0.2857,0.0,0.0,2.55,1.182,1.55,0.6745,6.0,2.7105,True,orthorhombic,mmm,62,17.5725,6.6122,0.2883
Ga4 Ge1 O8,3,0.0,0.0,0.0,0.6154,0.0,0.0,0.0769,0.0,0.0,0.0,-0.6154,1.63,0.7751,0.7,0.3359,2.0,0.973,True,monoclinic,2/m,12,11.3067,5.4173,0.3826
Ca4 Fe4 O12,3,0.0,0.0,0.2,0.6,0.0,0.0,0.0,0.0,0.0,0.2,-0.4,2.44,1.0262,1.2,0.506,2.0,0.9798,True,orthorhombic,mmm,62,11.2066,4.2651,0.7053
O14 Pr4 Ru4,3,0.0,0.0,0.0,0.6364,0.0,0.1818,0.0,0.0,0.1818,0.1818,-0.1818,2.31,0.9128,1.25,0.4975,6.0,2.3461,True,cubic,m-3m,227,13.2394,6.7951,1.0
K12 P4 S16,3,0.0,0.375,0.0,0.0,0.0,0.0,0.0,0.0,0.0,0.0,-1.0,1.76,0.8236,1.2,0.5809,1.0,0.4841,True,orthorhombic,mmm,62,28.4025,2.0209,0.8741
Cu6 Er4 Rb2 Se10,4,0.0,0.0909,0.0,0.4545,0.0,0.1818,0.0,0.0,0.1818,0.2727,0.2727,1.73,0.6094,1.2,0.3645,4.0,1.5266,True,orthorhombic,mmm,63,23.1461,6.5573,0.241
Cd4 I2 P6,3,0.0,0.0,0.0,0.0,0.1667,0.0,0.0,0.0,0.0,0.3333,-1.0,0.97,0.3352,0.55,0.255,2.0,1.0,True,monoclinic,m,9,24.829,4.9563,0.8255
Nb2 O8 Yb2,3,0.0,0.0,0.0,0.6667,0.0,0.1667,0.0,0.0,0.1667,0.1667,0.0,3.44,1.3275,1.15,0.4793,6.0,2.2913,True,monoclinic,2/m,15,12.7805,7.1448,0.7941
La6 O16 Re2,3,0.0,0.0,0.0,0.6667,0.0,0.25,0.0,0.0,0.25,0.3333,-0.25,2.34,1.0284,1.35,0.5852,6.0,2.6405,True,monoclinic,2/m,11,14.3425,7.052,0.8293
Br24 Cd32 P16,3,0.0,0.0,0.0,0.0,0.3333,0.0,0.0,0.0,0.0,0.4444,-0.1111,1.27,0.5546,0.55,0.235,2.0,0.7857,True,cubic,m-3,205,28.1927,4.9168,1.0
S32 Ti8 Tl16,3,0.0,0.0,0.0,0.0,0.0,0.0,0.0,0.0,0.0,0.1429,-0.2857,1.04,0.4889,0.9,0.3943,3.0,1.3093,True,orthorhombic,mmm,61,25.6951,5.3998,0.2809
Ba6 Nb10 O30,3,0.0,0.0,0.1304,0.6522,0.0,0.0,0.0,0.0,0.0,0.2174,0.0435,2.55,1.0234,1.55,0.5663,4.0,1.6326,True,tetragonal,4/mmm,127,14.4647,5.5728,0.3151
Ge4 Rh4 Tm4,3,0.0,0.0,0.0,0.0,0.0,0.3333,0.3333,0.0,0.3333,0.3333,0.6667,1.03,0.4361,0.5,0.216,4.0,1.6997,True,orthorhombic,mmm,62,18.4587,10.3298,0.5685
Bi4 I4 Se4,3,0.0,0.0,0.0,0.3333,0.3333,0.0,0.0,0.0,0.0,0.0,0.0,0.64,0.2794,0.45,0.1841,2.0,0.8165,True,orthorhombic,mmm,62,36.2989,6.3259,0.379
Ge4 Yb8,2,0.0,0.0,0.0,0.0,0.0,0.6667,0.3333,0.0,0.6667,0.0,0.6667,2.01,0.9475,0.5,0.2357,4.0,1.8856,True,orthorhombic,mmm,62,26.8226,8.6407,0.538
Er2 Rh4,2,0.0,0.0,0.0,0.0,0.0,0.3333,0.0,0.0,0.3333,0.6667,3.0,1.04,0.4903,0.4,0.1886,3.0,1.4142,True,cubic,m-3m,227,17.7863,11.61,1.0
Hg4 Na4,2,0.0,0.5,0.0,0.0,0.0,0.0,0.0,0.0,0.0,0.5,1.0,1.07,0.535,0.3,0.15,3.0,1.5,True,orthorhombic,mmm,63,26.7544,6.9384,0.8244
Co4 Mo6 O16,3,0.0,0.0,0.0,0.6154,0.0,0.0,0.0,0.0,0.0,0.3846,0.0,1.56,0.6825,0.85,0.3952,3.0,1.3009,True,hexagonal,6mm,186,11.5065,5.9244,0.5859
Ca2 Pd4,2,0.0,0.0,0.3333,0.0,0.0,0.0,0.0,0.0,0.0,0.6667,2.0,1.2,0.5657,0.4,0.1886,1.0,0.4714,True,cubic,m-3m,227,19.4287,7.2055,1.0
Ge10 Li8 O24,3,0.0,0.1905,0.0,0.5714,0.0,0.0,0.2381,0.0,0.0,0.0,-1.9048,2.46,0.9925,0.85,0.3714,2.0,0.8518,True,triclinic,-1,2,10.4058,4.4299,0.5339
Dy6 Ga2 O12,3,0.0,0.0,0.0,0.6,0.0,0.3,0.0,0.0,0.3,0.0,0.0,2.22,1.0281,1.15,0.523,6.0,2.6833,True,orthorhombic,mm2,36,13.547,8.0069,0.7616
K3 O8 V3,3,0.0,0.2143,0.0,0.5714,0.0,0.0,0.0,0.0,0.0,0.2143,0.1429,2.62,1.1278,1.6,0.6446,2.0,0.9897,True,trigonal,-3m,164,15.4941,3.0476,0.7612
Fe1 Na1 O2,3,0.0,0.25,0.0,0.5,0.0,0.0,0.0,0.0,0.0,0.25,-0.25,2.51,1.078,1.2,0.5196,2.0,0.8292,True,trigonal,-3m,166,11.0153,4.177,1.0
Eu2 Ir4,2,0.0,0.0,0.0,0.0,0.0,0.3333,0.0,0.0,0.3333,0.6667,2.6667,2.2,1.0371,0.5,0.2357,2.0,0.9428,True,cubic,m-3m,227,18.8118,15.7829,1.0
Ca2 Ga2,2,0.0,0.0,0.5,0.0,0.0,0.0,0.0,0.0,0.0,0.0,2.5,0.81,0.405,0.5,0.25,0.0,0.0,True,orthorhombic,mmm,63,26.2086,3.4784,0.6668
Br4 Li2 Rb2,3,0.0,0.5,0.0,0.0,0.5,0.0,0.0,0.0,0.0,0.0,0.0,2.14,1.0316,1.2,0.4918,3.0,1.0897,True,orthorhombic,mmm,63,33.0146,3.1714,0.5532
La8 O20 Ru4,3,0.0,0.0,0.0,0.625,0.0,0.25,0.0,0.0,0.25,0.375,-0.125,2.34,1.0067,1.35,0.5799,6.0,2.5709,True,monoclinic,2/m,14,13.4226,7.0961,0.6355
Mn2 O24 P8,3,0.0,0.0,0.0,0.7059,0.0,0.0,0.0,0.0,0.0,0.0588,-2.0,1.89,0.643,0.8,0.2353,2.0,0.5882,True,monoclinic,2/m,15,14.4132,2.5131,1.0812
Hg2 Mg6,2,0.0,0.0,0.75,0.0,0.0,0.0,0.0,0.0,0.0,0.25,1.75,0.69,0.2988,0.0,0.0,3.0,1.299,True,hexagonal,6/mmm,194,22.4274,5.0626,0.5669
Au4 Ba8 Tl28,3,0.0,0.0,0.2,0.0,0.0,0.0,0.0,0.0,0.0,0.1,1.4,1.65,0.4339,0.8,0.2067,0.0,0.0,True,orthorhombic,mmm,62,32.2284,9.8015,0.2365
Ca2 Cr2 La2 O12 Ti2,5,0.0,0.0,0.1,0.6,0.0,0.1,0.0,0.0,0.1,0.3,0.0,2.44,1.0512,1.35,0.5311,6.0,1.833,True,monoclinic,m,7,11.8688,5.2444,0.7073
As1 Nd1,2,0.0,0.0,0.0,0.0,0.0,0.5,0.5,0.0,0.5,0.0,0.0,1.04,0.52,0.7,0.35,4.0,2.0,True,cubic,m-3m,225,27.6345,6.5847,1.0
Co4 Ta2,2,0.0,0.0,0.0,0.0,0.0,0.0,0.0,0.0,0.0,1.0,3.0,0.38,0.1791,0.1,0.0471,2.0,0.9428,True,cubic,m-3m,227,12.692,13.0317,1.0
Ba4 Cd4 S8,3,0.0,0.0,0.25,0.0,0.0,0.0,0.0,0.0,0.0,0.25,0.0,1.69,0.7043,1.15,0.475,3.0,1.299,True,orthorhombic,mmm,62,28.1145,4.6345,0.2963
Ce3 In3 Ir3,3,0.0,0.0,0.0,0.0,0.0,0.3333,0.0,0.0,0.3333,0.3333,3.0,1.08,0.4445,0.5,0.2055,3.0,1.2472,True,hexagonal,-6m2,189,22.1748,11.1615,1.8803
P4 S12 Zr2,3,0.0,0.0,0.0,0.0,0.0,0.0,0.0,0.0,0.0,0.1111,-1.5556,1.25,0.3956,0.55,0.1728,2.0,0.6285,True,tetragonal,4/m,84,25.2848,2.5216,0.7251
P8 Rh4,2,0.0,0.0,0.0,0.0,0.0,0.0,0.0,0.0,0.0,0.3333,-1.0,0.09,0.0424,0.35,0.165,2.0,0.9428,True,monoclinic,2/m,14,15.365,5.9387,0.9831
B4 Rh4 Sr2,3,0.0,0.0,0.2,0.0,0.0,0.0,0.4,0.0,0.0,0.4,2.8,1.33,0.4958,1.15,0.4238,3.0,1.4697,True,orthorhombic,mmm,70,15.415,6.7877,0.9123
Ag6 As2 S6,3,0.0,0.0,0.0,0.0,0.0,0.0,0.1429,0.0,0.0,0.4286,-0.8571,0.65,0.302,0.6,0.2827,2.0,0.9258,True,trigonal,3m,161,22.8986,5.1251,1.0
F2 Li4 O8 P2 W2,5,0.0,0.2222,0.0,0.4444,0.1111,0.0,0.0,0.0,0.0,0.1111,-0.6667,3.0,1.0605,0.95,0.3855,4.0,1.2571,True,triclinic,1,1,12.7024,4.5274,0.7157
F20 Fe4 H40 N8 O4,5,0.0,0.0,0.0,0.0526,0.2632,0.0,0.0,0.0,0.0,0.0526,-1.1053,2.15,0.7956,1.15,0.2728,3.0,0.748,True,orthorhombic,mmm,60,9.1426,1.959,0.7328
C14 Ho8,2,0.0,0.0,0.0,0.0,0.0,0.3636,0.0,0.0,0.3636,0.0,-1.4545,1.32,0.635,1.05,0.5051,6.0,2.8863,True,monoclinic,2/m,14,14.3008,7.8515,0.2695
F12 Na3 Y3,3,0.0,0.1667,0.0,0.0,0.6667,0.0,0.0,0.0,0.0,0.1667,0.0,3.05,1.372,1.3,0.6128,3.0,1.1055,True,hexagonal,-6,174,12.5778,4.1342,0.8541
Co1 Cu2 S4 Sn1,4,0.0,0.0,0.0,0.0,0.0,0.0,0.0,0.0,0.0,0.375,-0.75,0.7,0.3357,0.45,0.19,2.0,0.696,True,tetragonal,-42m,121,19.6218,4.5804,0.8226
Cl6 H8 N2 Sn1,4,0.0,0.0,0.0,0.0,0.3529,0.0,0.0,0.0,0.0,0.0,-1.4118,1.2,0.482,1.2,0.3948,4.0,1.1617,True,cubic,m-3m,225,15.5971,2.3015,1.0
Cu2 O8 Rh4,3,0.0,0.0,0.0,0.5714,0.0,0.0,0.0,0.0,0.0,0.4286,0.0,1.54,0.6474,0.75,0.3712,3.0,1.3553,True,tetragonal,4/mmm,141,11.4538,6.9041,1.0
Mn2 Se8 Yb4,3,0.0,0.0,0.0,0.5714,0.0,0.2857,0.0,0.0,0.2857,0.1429,0.0,2.55,1.1141,0.6,0.2624,4.0,1.807,True,cubic,m-3m,227,26.9786,6.3032,1.0
O2 S2 Zr2,3,0.0,0.0,0.0,0.3333,0.0,0.0,0.0,0.0,0.0,0.3333,0.0,2.11,0.8663,0.95,0.3894,3.0,1.2472,True,tetragonal,4/mmm,129,14.0608,5.4832,0.5657
Na2 O10 Sm2 Ti3,4,0.0,0.1176,0.0,0.5882,0.0,0.1176,0.0,0.0,0.1176,0.1765,0.0,2.51,1.0857,1.25,0.5308,6.0,1.917,True,tetragonal,4/mmm,139,12.4251,5.1122,0.2627
Pu1 Ru1,2,0.5,0.0,0.0,0.0,0.0,0.0,0.0,0.0,0.5,0.5,3.5,0.92,0.46,0.45,0.225,4.0,2.0,True,cubic,m-3m,221,17.5146,16.3578,1.0
Mn4 Ni2 O12,3,0.0,0.0,0.0,0.6667,0.0,0.0,0.0,0.0,0.0,0.3333,-0.6667,1.89,0.8401,0.8,0.3695,2.0,0.9428,True,orthorhombic,mmm,64,12.0926,4.0366,0.5005
In10 Sb9 Te1,3,0.0,0.0,0.0,0.05,0.0,0.0,0.5,0.0,0.0,0.0,0.05,0.32,0.1379,0.15,0.0536,0.0,0.0,True,triclinic,-1,2,29.1717,6.75,0.7455
Ca22 Sb20,2,0.0,0.0,0.5238,0.0,0.0,0.0,0.4762,0.0,0.0,0.0,-0.381,1.05,0.5244,0.35,0.1748,1.0,0.4994,True,tetragonal,4/mmm,139,30.1099,4.3554,0.9909
Fe2 Na2 S4,3,0.0,0.25,0.0,0.0,0.0,0.0,0.0,0.0,0.0,0.25,-0.25,1.65,0.6792,0.8,0.3317,1.0,0.433,True,orthorhombic,222,23,26.0373,2.2794,0.7698
Co8 P8 Se8,3,0.0,0.0,0.0,0.3333,0.0,0.0,0.0,0.0,0.0,0.3333,-1.0,0.67,0.2738,0.35,0.1434,1.0,0.4714,True,orthorhombic,mmm,61,14.8957,6.275,0.4986
B16 Ni4 Sc4,3,0.0,0.0,0.0,0.0,0.0,0.0,0.6667,0.0,0.0,0.3333,2.8333,0.68,0.2483,0.75,0.3033,2.0,0.9428,True,orthorhombic,mmm,55,8.8026,4.6184,0.2899
Si8,1,0.0,0.0,0.0,0.0,0.0,0.0,1.0,0.0,0.0,0.0,-4.0,0.0,0.0,0.0,0.0,0.0,0.0,True,orthorhombic,mmm,64,15.3626,3.0358,0.9926
La2 Nb14 O38,3,0.0,0.0,0.0,0.7037,0.0,0.037,0.0,0.0,0.037,0.2963,-0.0,2.34,0.8734,1.35,0.4263,6.0,1.633,True,trigonal,3,143,13.1438,5.1154,0.3111
B1 C4 Cu1 N4,4,0.0,0.0,0.0,0.0,0.0,0.0,0.1,0.0,0.0,0.1,-2.3,1.14,0.3974,0.7,0.2047,2.0,0.6,True,cubic,-43m,215,15.9727,1.8549,1.0
Er8 Pt4,2,0.0,0.0,0.0,0.0,0.0,0.6667,0.0,0.0,0.6667,0.3333,2.6667,1.04,0.4903,0.4,0.1886,2.0,0.9428,True,orthorhombic,mmm,62,24.4519,11.9885,0.5443
Ce1 Ge2 Ni2,3,0.0,0.0,0.0,0.0,0.0,0.2,0.4,0.0,0.2,0.4,-0.2,0.89,0.339,0.6,0.2245,4.0,1.6,True,tetragonal,4/mmm,139,16.6884,8.0156,0.7272
Mg8 Tm4,2,0.0,0.0,0.6667,0.0,0.0,0.3333,0.0,0.0,0.3333,0.0,2.3333,0.06,0.0283,0.25,0.1179,5.0,2.357,True,hexagonal,6/mmm,194,25.3431,4.7513,0.6155
Mn23 Th6,2,0.2069,0.0,0.0,0.0,0.0,0.0,0.0,0.0,0.2069,0.7931,2.4138,0.25,0.1013,0.4,0.162,5.0,2.0254,True,cubic,m-3m,225,15.4863,9.8197,1.0
Al4 O8 Pb2,3,0.0,0.0,0.0,0.5714,0.0,0.0,0.0,0.0,0.0,0.0,0.0,1.83,0.8176,1.2,0.446,4.0,1.3553,True,orthorhombic,mm2,40,14.7213,5.2397,0.6019
Li2 O14 P4 Ti2,4,0.0,0.0909,0.0,0.6364,0.0,0.0,0.0,0.0,0.0,0.0909,-1.3636,2.46,0.8795,0.85,0.3215,2.0,0.6428,True,monoclinic,2,4,12.595,2.7417,0.7038
Br1 Cl14 P3,3,0.0,0.0,0.0,0.0,0.8333,0.0,0.0,0.0,0.0,0.0,-1.3333,0.97,0.3594,0.15,0.0344,1.0,0.2291,True,tetragonal,4,79,28.9381,2.1332,1.0
Cd8 Sb8,2,0.0,0.0,0.0,0.0,0.0,0.0,0.5,0.0,0.0,0.5,-0.5,0.36,0.18,0.1,0.05,0.0,0.0,True,orthorhombic,mmm,61,30.4062,6.3943,0.7545
Fe6 O32 P8,3,0.0,0.0,0.0,0.6957,0.0,0.0,0.0,0.0,0.0,0.1304,-1.6522,1.61,0.6536,0.8,0.2847,2.0,0.7118,True,monoclinic,2/m,14,13.7755,2.869,1.759
C4 F12 H12 O16 S4,5,0.0,0.0,0.0,0.3333,0.25,0.0,0.0,0.0,0.0,0.0,-1.6667,1.78,0.6943,0.75,0.2056,2.0,0.5528,True,monoclinic,2/m,14,12.4163,1.8734,0.6039
La4 Ni2 O8,3,0.0,0.0,0.0,0.5714,0.0,0.2857,0.0,0.0,0.2857,0.4286,0.0,2.34,1.0544,1.35,0.5985,6.0,2.6186,True,orthorhombic,mmm,64,13.9948,6.7888,0.8124
Pb4 Pd2,2,0.0,0.0,0.0,0.0,0.0,0.0,0.0,0.0,0.0,0.3333,2.0,0.13,0.0613,0.4,0.1886,1.0,0.4714,True,tetragonal,4/mmm,140,24.4671,11.7824,1.0
Ni2 V1,2,0.0,0.0,0.0,0.0,0.0,0.0,0.0,0.0,0.0,1.0,3.0,0.28,0.132,0.0,0.0,0.0,0.0,True,orthorhombic,mmm,71,11.4097,8.166,0.5755
In4 Na12 S12,3,0.0,0.4286,0.0,0.0,0.0,0.0,0.0,0.0,0.0,0.0,0.0,1.65,0.7639,0.8,0.374,2.0,0.6999,True,monoclinic,2/m,15,25.8817,2.5662,0.7086
La1 Mn1 O6 Ru1 Sr1,5,0.0,0.0,0.1,0.6,0.0,0.1,0.0,0.0,0.1,0.3,-0.2,2.49,1.0222,1.4,0.5573,6.0,1.9596,True,trigonal,3,146,12.9912,6.1166,1.0
B8 Dy4 O18,3,0.0,0.0,0.0,0.6,0.0,0.1333,0.2667,0.0,0.1333,0.0,0.0,2.22,0.8554,1.15,0.3803,6.0,2.0396,True,triclinic,-1,2,9.42,6.0197,0.8258
Cs2 S2,2,0.0,0.5,0.0,0.0,0.0,0.0,0.0,0.0,0.0,0.0,-0.5,1.79,0.895,1.6,0.8,3.0,1.5,True,orthorhombic,mmm,71,44.233,3.0966,0.8233
Ba2 Mn3 O2 Sb2,4,0.0,0.0,0.2222,0.2222,0.0,0.0,0.2222,0.0,0.0,0.3333,0.0,2.55,0.8935,1.55,0.5175,4.0,1.3966,True,tetragonal,4/mmm,139,23.6525,5.5773,0.4012
Cd2 O6 Ti2,3,0.0,0.0,0.0,0.6,0.0,0.0,0.0,0.0,0.0,0.4,0.0,1.9,0.8953,0.95,0.4313,3.0,1.2649,True,trigonal,-3,148,12.278,5.6337,1.0