formula,numberOfSpecies,fracActinoid,fracAlkali,fracAlkaline,fracChalcogen,fracHalogen,fracLanthanoid,fracMetalloid,fracNobleGas,fracRareEarth,fracTransitionMetal,electronsPerAtom,electronegativityRange,electronegativityStd,radiiRange,radiiStd,rowRange,rowStd,ordered,crystalSystem,pointGroup,spaceGroupNumber,volumePerSite,density,c_a
Pr4 Sn4 Zn4,3,0.0,0.0,0.0,0.0,0.0,0.3333,0.0,0.0,0.3333,0.3333,0.3333,0.83,0.3424,0.5,0.216,4.0,1.6997,True,hexagonal,6/mmm,194,25.5544,7.0401,0.2739
Bi12 Se26 Sr8,3,0.0,0.0,0.1739,0.5652,0.0,0.0,0.0,0.0,0.0,0.0,0.0,1.6,0.5874,0.85,0.3288,2.0,0.8564,True,monoclinic,2/m,11,30.0682,6.317,0.2282
Ce1 Pt2 Si2,3,0.0,0.0,0.0,0.0,0.0,0.2,0.4,0.0,0.2,0.4,-0.2,1.16,0.4236,0.75,0.2739,5.0,1.9391,True,tetragonal,4/mmm,139,17.8177,10.931,0.724
Cl18 Mo4 Rb6,3,0.0,0.2143,0.0,0.0,0.6429,0.0,0.0,0.0,0.0,0.1429,0.1429,2.34,0.9493,1.35,0.5426,2.0,0.9583,True,hexagonal,6/mmm,194,29.663,3.0684,0.4108
K1 Pr1 Te2,3,0.0,0.25,0.0,0.5,0.0,0.25,0.5,0.0,0.25,0.0,0.0,1.28,0.5731,0.8,0.3361,4.0,1.5,True,trigonal,-3m,166,38.7782,4.659,1.0
F6 Ga2,2,0.0,0.0,0.0,0.0,0.75,0.0,0.0,0.0,0.0,0.0,0.0,2.17,0.9396,0.8,0.3464,2.0,0.866,True,trigonal,-3m,167,12.4007,4.2421,1.0
Cu4 I12 Tl8,3,0.0,0.0,0.0,0.0,0.5,0.0,0.0,0.0,0.0,0.1667,0.1667,1.04,0.4824,0.55,0.2422,2.0,0.6872,True,orthorhombic,mmm,58,36.5685,6.4558,0.9466
As16 S18,2,0.0,0.0,0.0,0.0,0.0,0.0,0.4706,0.0,0.0,0.0,-2.4706,0.4,0.1997,0.15,0.0749,1.0,0.4991,True,monoclinic,2/m,13,30.319,2.8607,0.9058
Be4 H12 Li4,3,0.0,0.2,0.2,0.0,0.0,0.0,0.0,0.0,0.0,0.0,0.0,1.22,0.4901,1.2,0.506,1.0,0.4899,True,orthorhombic,mmm,62,6.2306,1.0115,0.7002
Ba8 N12 V4,3,0.0,0.0,0.3333,0.0,0.0,0.0,0.0,0.0,0.0,0.1667,0.0,2.15,0.9831,1.5,0.6719,4.0,1.7951,True,orthorhombic,mmm,64,18.9954,5.356,0.4538
Li2 Te1,2,0.0,0.6667,0.0,0.3333,0.0,0.0,0.3333,0.0,0.0,0.0,0.0,1.12,0.528,0.05,0.0236,3.0,1.4142,True,cubic,m-3m,225,23.1793,3.3785,1.0
Cu2 K4 Se8 V2,4,0.0,0.25,0.0,0.5,0.0,0.0,0.0,0.0,0.0,0.25,0.125,1.73,0.7152,1.05,0.4336,0.0,0.0,True,orthorhombic,mmm,70,28.575,3.6939,0.4603
Ce12 Ge8 Rh8,3,0.0,0.0,0.0,0.0,0.0,0.4286,0.2857,0.0,0.4286,0.2857,1.0,1.16,0.5174,0.6,0.2748,4.0,1.7728,True,orthorhombic,mmm,57,21.5438,8.4943,0.4214
Cu5 Nd1,2,0.0,0.0,0.0,0.0,0.0,0.1667,0.0,0.0,0.1667,0.8333,2.1667,0.76,0.2832,0.5,0.1863,4.0,1.4907,True,hexagonal,6/mmm,191,15.4717,8.2637,1.2466
As4 Cs12 O16,3,0.0,0.375,0.0,0.5,0.0,0.0,0.125,0.0,0.0,0.0,-1.0,2.65,1.2274,2.0,0.9314,4.0,1.854,True,orthorhombic,mmm,62,24.6864,4.5205,0.5291
Co4 Nb4 P4,3,0.0,0.0,0.0,0.0,0.0,0.0,0.0,0.0,0.0,0.6667,1.3333,0.59,0.241,0.45,0.1929,2.0,0.8165,True,orthorhombic,mmm,62,12.8919,7.8491,0.5176
Na24 Se32 Si8,3,0.0,0.375,0.0,0.5,0.0,0.0,0.125,0.0,0.0,0.0,-1.125,1.62,0.7501,0.7,0.3199,1.0,0.5,True,monoclinic,2/m,14,27.4158,3.1261,0.427
Fe2 Mo2 O14 V2,4,0.0,0.0,0.0,0.7,0.0,0.0,0.0,0.0,0.0,0.3,-0.3,1.81,0.7278,0.85,0.3673,3.0,1.1,True,triclinic,-1,2,15.1154,3.4575,0.7023
Ba6 Ir4 Na2 O18,4,0.0,0.0667,0.2,0.6,0.0,0.0,0.0,0.0,0.0,0.1333,-0.3333,2.55,1.1025,1.55,0.6414,4.0,1.8547,True,monoclinic,2/m,15,15.2765,6.9814,0.4014
Be2 F8 K2 Li2,4,0.0,0.2857,0.1429,0.0,0.5714,0.0,0.0,0.0,0.0,0.0,0.0,3.16,1.4294,1.7,0.6132,2.0,0.6999,True,hexagonal,6,173,14.2877,2.1757,0.5876
O24 P16 S12,3,0.0,0.0,0.0,0.4615,0.0,0.0,0.0,0.0,0.0,0.0,-2.3077,1.25,0.5581,0.4,0.1994,1.0,0.4985,True,monoclinic,2/m,14,22.0248,1.8332,0.6704
Au2 Si2 Sr1,3,0.0,0.0,0.2,0.0,0.0,0.0,0.4,0.0,0.0,0.4,0.0,1.59,0.5831,0.9,0.3295,3.0,1.3565,True,tetragonal,4/mmm,139,20.3492,8.7759,0.743
Al1 C1 Y3,3,0.0,0.0,0.0,0.0,0.0,0.0,0.0,0.0,0.0,0.6,1.6,1.33,0.5156,1.1,0.44,3.0,1.2649,True,cubic,m-3m,221,23.4617,4.3274,1.0
Cl8 Na2 Ti3,3,0.0,0.1538,0.0,0.0,0.6154,0.0,0.0,0.0,0.0,0.2308,0.4615,2.23,0.9256,0.8,0.2983,1.0,0.4213,True,trigonal,-3m,166,23.8206,2.5375,1.0
Ge8 Te24 Tl16,3,0.0,0.0,0.0,0.5,0.0,0.0,0.6667,0.0,0.0,0.0,-1.3333,0.48,0.218,0.65,0.2589,2.0,0.6872,True,orthorhombic,mmm,62,34.4247,6.9478,0.3888
O4 Sr2 V1,3,0.0,0.0,0.2857,0.5714,0.0,0.0,0.0,0.0,0.0,0.1429,0.1429,2.49,1.1395,1.4,0.619,3.0,1.3553,True,tetragonal,4/mmm,139,13.6023,5.0606,0.5487
Ag6 F18,2,0.0,0.0,0.0,0.0,0.75,0.0,0.0,0.0,0.0,0.25,-0.5,2.05,0.8877,1.1,0.4763,3.0,1.299,True,hexagonal,622,178,15.0294,4.5538,0.3367
O10 P2 V4,3,0.0,0.0,0.0,0.625,0.0,0.0,0.0,0.0,0.0,0.25,-0.375,1.81,0.8023,0.75,0.3228,2.0,0.857,True,tetragonal,4/mmm,141,11.7873,3.7482,0.7408
Ca4 I2 N2,3,0.0,0.0,0.5,0.0,0.25,0.0,0.0,0.0,0.0,0.0,0.0,2.04,0.9347,1.15,0.4695,3.0,1.0897,True,hexagonal,6/mmm,194,23.1325,3.9673,0.2604
Ge2 Sr1,2,0.0,0.0,0.3333,0.0,0.0,0.0,0.6667,0.0,0.0,0.0,-2.0,1.06,0.4997,0.75,0.3536,1.0,0.4714,True,trigonal,-3m,164,26.0967,4.9398,0.802
F8 Sn4,2,0.0,0.0,0.0,0.0,0.6667,0.0,0.0,0.0,0.0,0.0,-2.0,2.02,0.9522,0.95,0.4478,3.0,1.4142,True,tetragonal,422,92,19.3574,4.4809,0.6159
As4 Cu2 Dy2,3,0.0,0.0,0.0,0.0,0.0,0.25,0.5,0.0,0.25,0.25,-0.25,0.96,0.3923,0.6,0.2449,4.0,1.7321,True,tetragonal,4/mmm,129,18.8445,8.2807,0.3947
Rh1 Sm1,2,0.0,0.0,0.0,0.0,0.0,0.5,0.0,0.0,0.5,0.5,3.0,1.11,0.555,0.5,0.25,3.0,1.5,True,cubic,m-3m,221,21.5348,9.7646,1.0
Co1 In1 Mn2,3,0.0,0.0,0.0,0.0,0.0,0.0,0.0,0.0,0.0,0.75,2.25,0.33,0.1444,0.2,0.075,1.0,0.433,True,cubic,-43m,216,14.7092,8.0048,1.0
Pd3 Ta1,2,0.0,0.0,0.0,0.0,0.0,0.0,0.0,0.0,0.0,1.0,2.75,0.7,0.3031,0.05,0.0217,1.0,0.433,True,tetragonal,4/mmm,139,15.6265,13.2886,0.8022
B20 Cd4 La4 O40,4,0.0,0.0,0.0,0.5882,0.0,0.0588,0.2941,0.0,0.0588,0.1176,-0.0,2.34,0.8082,1.35,0.3675,6.0,1.5384,True,monoclinic,2/m,14,10.1286,4.4879,0.8228
Nd16 O24,2,0.0,0.0,0.0,0.6,0.0,0.4,0.0,0.0,0.4,0.0,0.0,2.3,1.1268,1.25,0.6124,6.0,2.9394,True,cubic,m-3,206,17.4727,6.3956,1.0
Ba8 Bi8 Se24,3,0.0,0.0,0.2,0.6,0.0,0.0,0.0,0.0,0.0,0.0,-0.2,1.66,0.6446,1.0,0.3955,2.0,0.9798,True,orthorhombic,222,19,31.3955,6.1691,0.2563
C8 U4 W4,3,0.25,0.0,0.0,0.0,0.0,0.0,0.0,0.0,0.25,0.25,0.5,1.17,0.4854,1.05,0.4479,7.0,2.9475,True,orthorhombic,mmm,62,13.8269,13.3872,0.3688
Sm1 Tl3,2,0.0,0.0,0.0,0.0,0.0,0.25,0.0,0.0,0.25,0.0,1.5,0.45,0.1949,0.05,0.0217,2.0,0.866,True,cubic,m-3m,221,27.9665,11.3336,1.0
K12 Nb8 Se44,3,0.0,0.1875,0.0,0.6875,0.0,0.0,0.0,0.0,0.0,0.125,-0.5625,1.73,0.6911,1.05,0.4038,1.0,0.3307,True,monoclinic,2/m,14,30.7469,3.9549,0.3071
Pr16 S24,2,0.0,0.0,0.0,0.0,0.0,0.4,0.0,0.0,0.4,0.0,0.0,1.45,0.7104,0.85,0.4164,5.0,2.4495,True,orthorhombic,mm2,43,24.2962,5.1671,2.5951
Ni4 Ta4 Te8,3,0.0,0.0,0.0,0.5,0.0,0.0,0.5,0.0,0.0,0.5,0.75,0.6,0.245,0.1,0.0354,2.0,0.7071,True,orthorhombic,mm2,28,23.5246,8.7324,0.7853
Eu2 Lu4 S8,3,0.0,0.0,0.0,0.0,0.0,0.4286,0.0,0.0,0.4286,0.0,0.0,2.58,0.9431,0.85,0.3889,5.0,1.9166,True,tetragonal,-42m,122,20.7459,7.2056,1.0
C6 Cs2 Li1 Mn1 N6,5,0.0,0.1875,0.0,0.0,0.0,0.0,0.0,0.0,0.0,0.0625,-2.3125,2.25,0.8093,1.95,0.6498,4.0,1.3636,True,cubic,m-3m,225,19.3106,2.6001,1.0
I12 O36 Tb4,3,0.0,0.0,0.0,0.6923,0.2308,0.0769,0.0,0.0,0.0769,0.0,-1.3846,3.44,0.9236,1.15,0.4182,6.0,1.8748,True,monoclinic,2/m,14,16.0445,5.4426,0.5328
Li2 Mn2 O8 P2,4,0.0,0.1429,0.0,0.5714,0.0,0.0,0.0,0.0,0.0,0.1429,-1.1429,2.46,0.9788,0.85,0.363,2.0,0.7284,True,orthorhombic,mmm,63,10.8405,3.4323,0.8016
B4 O12 Sr6,3,0.0,0.0,0.2727,0.5455,0.0,0.0,0.1818,0.0,0.0,0.0,0.0,2.49,1.0843,1.4,0.6028,3.0,1.3361,True,trigonal,-3m,167,14.0216,4.0963,1.0
Ge32 Mn36 Nb8,3,0.0,0.0,0.0,0.0,0.0,0.0,0.4211,0.0,0.0,0.5789,-0.2105,0.46,0.2231,0.2,0.0799,1.0,0.3069,True,orthorhombic,mmm,62,14.1314,7.8011,0.3163
O18 P6 Pr2,3,0.0,0.0,0.0,0.6923,0.0,0.0769,0.0,0.0,0.0769,0.0,-1.8462,2.31,0.7441,1.25,0.3487,6.0,1.5877,True,orthorhombic,222,20,14.0862,3.4261,0.9617
Nb2 O4,2,0.0,0.0,0.0,0.6667,0.0,0.0,0.0,0.0,0.0,0.3333,0.3333,1.84,0.8674,0.85,0.4007,3.0,1.4142,True,tetragonal,4/mmm,136,12.273,5.6333,0.5884
Cl20 K8 Pu4,3,0.125,0.25,0.0,0.0,0.625,0.0,0.0,0.0,0.125,0.0,0.125,2.34,1.0669,1.2,0.5247,6.0,1.9365,True,orthorhombic,mmm,62,29.0302,3.5712,0.6187
P8 S32 Sm8,3,0.0,0.0,0.0,0.0,0.0,0.1667,0.0,0.0,0.1667,0.0,-1.3333,1.41,0.5164,0.85,0.3168,5.0,1.8634,True,tetragonal,4/mmm,142,24.1195,3.5524,0.8847
Co5 Sm1,2,0.0,0.0,0.0,0.0,0.0,0.1667,0.0,0.0,0.1667,0.8333,2.1667,0.71,0.2646,0.5,0.1863,4.0,1.4907,True,hexagonal,6/mmm,191,14.1192,8.7231,1.2628
P2 Se2 U2,3,0.3333,0.0,0.0,0.3333,0.0,0.0,0.0,0.0,0.3333,0.0,0.3333,1.17,0.4893,0.75,0.324,6.0,2.6247,True,tetragonal,4/mmm,129,20.822,9.2499,0.4659
F2 Mn2 O8 P2,4,0.0,0.0,0.0,0.5714,0.1429,0.0,0.0,0.0,0.0,0.1429,-1.4286,2.43,0.7983,0.9,0.3017,2.0,0.7284,True,triclinic,-1,2,12.1072,3.3095,0.7126
As2 Ba2 Mn3 O2,4,0.0,0.0,0.2222,0.2222,0.0,0.0,0.2222,0.0,0.0,0.3333,0.0,2.55,0.8989,1.55,0.526,4.0,1.3333,True,tetragonal,4/mmm,139,21.4074,5.3549,0.4112
Ge2 Pt2 U2,3,0.3333,0.0,0.0,0.0,0.0,0.0,0.3333,0.0,0.3333,0.3333,1.3333,0.9,0.3771,0.5,0.216,5.0,2.0548,True,orthorhombic,mm2,44,19.6623,14.2374,0.7793
Cd1 In2 Te4,3,0.0,0.0,0.0,0.5714,0.0,0.0,0.5714,0.0,0.0,0.1429,0.0,0.41,0.1754,0.15,0.0742,0.0,0.0,True,tetragonal,-4,82,37.314,5.4193,0.8246
Mn3 Sb1,2,0.0,0.0,0.0,0.0,0.0,0.0,0.25,0.0,0.0,0.75,0.75,0.5,0.2165,0.05,0.0217,1.0,0.433,True,cubic,m-3m,221,13.8634,8.5813,1.0
Al2 Be2 H10,3,0.0,0.0,0.1429,0.0,0.0,0.0,0.0,0.0,0.0,0.0,-0.0,0.63,0.2758,1.0,0.4101,2.0,0.7284,True,monoclinic,2,4,9.1754,1.0609,0.6886
Na2 S14 Si2 Sm6,4,0.0,0.0833,0.0,0.0,0.0,0.25,0.0833,0.0,0.25,0.0,-0.6667,1.65,0.6809,0.85,0.39,5.0,2.1651,True,hexagonal,6,173,21.5515,4.6654,1.7724
Cr6 Si2 U4,3,0.3333,0.0,0.0,0.0,0.0,0.0,0.1667,0.0,0.3333,0.5,2.8333,0.52,0.1814,0.65,0.2267,6.0,2.5,True,hexagonal,6/mmm,194,15.2567,11.9748,0.6351
La3 Mg3 Tl3,3,0.0,0.0,0.3333,0.0,0.0,0.3333,0.0,0.0,0.3333,0.3333,2.0,0.52,0.2136,0.45,0.2014,5.0,2.0548,True,hexagonal,-6m2,189,28.9942,7.0175,1.6222
Ba4 Gd8 O20 Zn4,4,0.0,0.0,0.1111,0.5556,0.0,0.2222,0.0,0.0,0.2222,0.1111,-0.0,2.55,1.1105,1.55,0.6138,6.0,2.4944,True,orthorhombic,mmm,62,14.721,7.4854,0.4624
In2 Y4,2,0.0,0.0,0.0,0.0,0.0,0.0,0.0,0.0,0.0,0.6667,3.0,0.56,0.264,0.25,0.1179,0.0,0.0,True,hexagonal,6/mmm,194,28.5686,5.6697,0.7984
Pt30 Si18 Sm6,3,0.0,0.0,0.0,0.0,0.0,0.1111,0.3333,0.0,0.1111,0.5556,0.1111,1.11,0.35,0.75,0.2187,5.0,1.6851,True,hexagonal,6/m,176,16.5705,13.4732,4.0042
Al4 H96 Na4 O80 S8,5,0.0,0.0208,0.0,0.4167,0.0,0.0,0.0,0.0,0.0,0.0,-1.3333,2.51,0.6661,1.55,0.3039,2.0,0.6401,True,cubic,m-3,205,9.644,1.6439,1.0
Mn6 Sc1 Sn6,3,0.0,0.0,0.0,0.0,0.0,0.0,0.0,0.0,0.0,0.5385,-0.6923,0.6,0.2233,0.2,0.0525,1.0,0.4985,True,hexagonal,6/mmm,191,17.4802,7.942,0.6039
Mg2 O8 S2,3,0.0,0.0,0.1667,0.6667,0.0,0.0,0.0,0.0,0.0,0.0,-1.3333,2.13,0.7944,0.9,0.3387,1.0,0.4714,True,orthorhombic,mmm,63,11.5192,2.8919,0.723
F8 Sr2 Zn2,3,0.0,0.0,0.1667,0.0,0.6667,0.0,0.0,0.0,0.0,0.1667,0.0,3.03,1.2794,1.5,0.5848,3.0,1.2134,True,tetragonal,4/m,88,15.1547,4.1824,0.7788
Bi8 Se12,2,0.0,0.0,0.0,0.6,0.0,0.0,0.0,0.0,0.0,0.0,0.0,0.53,0.2596,0.45,0.2205,2.0,0.9798,True,orthorhombic,mmm,62,30.3048,7.1763,0.3319
Cd1 O6 Pt3,3,0.0,0.0,0.0,0.6,0.0,0.0,0.0,0.0,0.0,0.4,-0.4,1.75,0.6606,0.95,0.3957,4.0,1.8574,True,orthorhombic,mmm,65,12.2386,10.7684,0.5125
O48 Sc8 W12,3,0.0,0.0,0.0,0.7059,0.0,0.0,0.0,0.0,0.0,0.2941,-0.3529,2.08,0.7248,1.0,0.393,4.0,1.5519,True,orthorhombic,mmm,60,19.3951,4.1973,0.7147
In2 Nd4,2,0.0,0.0,0.0,0.0,0.0,0.6667,0.0,0.0,0.6667,0.0,3.0,0.64,0.3017,0.3,0.1414,3.0,1.4142,True,hexagonal,6/mmm,194,31.1884,7.1576,0.8012
Ba4 O44 Ti26,3,0.0,0.0,0.0541,0.5946,0.0,0.0,0.0,0.0,0.0,0.3514,0.3243,2.55,0.9855,1.55,0.4707,4.0,1.1941,True,orthorhombic,mmm,64,11.3531,4.937,0.5431
Al1 C1 Ti3,3,0.0,0.0,0.0,0.0,0.0,0.0,0.0,0.0,0.0,0.6,2.2,1.01,0.3979,0.7,0.2713,2.0,0.8,True,cubic,m-3m,221,14.6187,4.1482,1.0
Ag2 O12 Tl2 V4,4,0.0,0.0,0.0,0.6,0.0,0.0,0.0,0.0,0.0,0.3,0.0,1.82,0.8552,1.3,0.4869,4.0,1.4457,True,monoclinic,2/m,15,16.7042,5.0711,0.7876
Eu2 S8 Y4,3,0.0,0.0,0.0,0.0,0.0,0.1429,0.0,0.0,0.1429,0.2857,0.0,2.58,0.9519,0.85,0.4044,5.0,1.7496,True,tetragonal,-42m,122,21.5682,5.0377,1.0
Ac2 Cl2 O2,3,0.3333,0.0,0.0,0.3333,0.3333,0.0,0.0,0.0,0.3333,0.3333,0.0,2.34,1.0434,1.35,0.5662,7.0,3.0912,True,tetragonal,4/mmm,129,21.841,7.0568,0.5953
Si4 Tb4,2,0.0,0.0,0.0,0.0,0.0,0.5,0.5,0.0,0.5,0.0,-0.5,1.9,0.95,0.65,0.325,5.0,2.5,True,orthorhombic,mmm,62,21.9496,7.0739,0.4835
Dy4 Rh6 Si10,3,0.0,0.0,0.0,0.0,0.0,0.2,0.5,0.0,0.2,0.3,-0.5,1.06,0.3679,0.65,0.2474,5.0,1.9079,True,orthorhombic,mmm,72,16.5567,7.7642,0.7037
Br4 Li2 Mg1,3,0.0,0.2857,0.1429,0.0,0.5714,0.0,0.0,0.0,0.0,0.0,0.0,1.98,0.931,0.35,0.1575,2.0,0.8806,True,orthorhombic,mmm,65,24.3306,3.4885,0.5708
F18 Ge3 Li6,3,0.0,0.2222,0.0,0.0,0.6667,0.0,0.1111,0.0,0.0,0.0,-0.8889,3.0,1.2834,0.95,0.42,2.0,0.6285,True,trigonal,32,150,11.0402,3.351,1.8239
C4 Ca2 N4 S4,4,0.0,0.0,0.1429,0.0,0.0,0.0,0.0,0.0,0.0,0.0,-2.2857,2.04,0.6378,1.15,0.3835,2.0,0.7284,True,monoclinic,2/m,15,18.1069,2.0469,0.7702
As12 Fe4 La1,3,0.0,0.0,0.0,0.0,0.0,0.0588,0.7059,0.0,0.0588,0.2941,-1.4706,1.08,0.276,0.8,0.2028,4.0,0.9412,True,cubic,m-3,204,17.2037,7.1616,1.0
O8 V4,2,0.0,0.0,0.0,0.6667,0.0,0.0,0.0,0.0,0.0,0.3333,0.3333,1.81,0.8532,0.75,0.3536,2.0,0.9428,True,orthorhombic,mmm,62,11.309,4.0595,0.3331
Co8 Na40 O32,3,0.0,0.5,0.0,0.4,0.0,0.0,0.0,0.0,0.0,0.1,-0.1,2.51,1.1843,1.2,0.5662,2.0,0.6403,True,orthorhombic,mmm,61,14.1561,2.7904,0.3337
Pt3 V1,2,0.0,0.0,0.0,0.0,0.0,0.0,0.0,0.0,0.0,1.0,2.75,0.65,0.2815,0.0,0.0,2.0,0.866,True,cubic,m-3m,221,15.1136,17.4747,1.0
As2 Mn6,2,0.0,0.0,0.0,0.0,0.0,0.0,0.25,0.0,0.0,0.75,0.75,0.63,0.2728,0.25,0.1083,0.0,0.0,True,orthorhombic,mmm,63,12.9325,7.6955,0.4636
Rb8 Te4,2,0.0,0.6667,0.0,0.3333,0.0,0.0,0.3333,0.0,0.0,0.0,0.0,1.28,0.6034,0.95,0.4478,0.0,0.0,True,orthorhombic,mmm,62,44.3753,3.7238,0.5774
In4 La2,2,0.0,0.0,0.0,0.0,0.0,0.3333,0.0,0.0,0.3333,0.3333,3.0,0.68,0.3206,0.4,0.1886,3.0,1.4142,True,orthorhombic,mmm,74,28.769,7.0907,0.7521
Mn4 Rh4 Si4,3,0.0,0.0,0.0,0.0,0.0,0.0,0.3333,0.0,0.0,0.6667,0.3333,0.73,0.2981,0.3,0.1312,2.0,0.8165,True,orthorhombic,mmm,62,13.8635,7.4234,0.5272
Cs8 O32 S16,3,0.0,0.1429,0.0,0.5714,0.0,0.0,0.0,0.0,0.0,0.0,-1.5714,2.65,0.9082,2.0,0.6761,4.0,1.3553,True,monoclinic,2/m,14,21.8664,2.8318,0.4904
B2 C1 Rh2 Y1,4,0.0,0.0,0.0,0.0,0.0,0.0,0.3333,0.0,0.0,0.5,1.8333,1.33,0.4169,1.1,0.3841,3.0,1.5,True,tetragonal,4/mmm,139,12.4956,7.2724,0.6527
Cd2 Ho1,2,0.0,0.0,0.0,0.0,0.0,0.3333,0.0,0.0,0.3333,0.6667,2.3333,0.46,0.2168,0.2,0.0943,3.0,1.4142,True,hexagonal,6/mmm,191,24.512,8.8011,1.4447
Dy1 Rb1 S2,3,0.0,0.25,0.0,0.0,0.0,0.25,0.0,0.0,0.25,0.0,0.0,1.76,0.7927,1.35,0.5662,5.0,2.0463,True,trigonal,-3m,166,27.7082,4.676,1.0
La1,1,0.0,0.0,0.0,0.0,0.0,1.0,0.0,0.0,1.0,1.0,3.0,0.0,0.0,0.0,0.0,0.0,0.0,True,cubic,m-3m,225,36.8609,6.2575,1.0
Nd2 Zn22,2,0.0,0.0,0.0,0.0,0.0,0.0833,0.0,0.0,0.0833,0.9167,2.0833,0.51,0.141,0.5,0.1382,4.0,1.1055,True,tetragonal,4/mmm,141,16.2213,7.3683,0.8268
Fe5 Ho1,2,0.0,0.0,0.0,0.0,0.0,0.1667,0.0,0.0,0.1667,0.8333,2.1667,0.6,0.2236,0.35,0.1304,4.0,1.4907,True,hexagonal,6/mmm,191,14.1624,8.6795,1.2631
N8 Sn6,2,0.0,0.0,0.0,0.0,0.0,0.0,0.0,0.0,0.0,0.0,-3.4286,1.08,0.5345,0.8,0.3959,3.0,1.4846,True,cubic,m-3m,227,13.6458,7.165,1.0
Er1 K1 O2,3,0.0,0.25,0.0,0.5,0.0,0.25,0.0,0.0,0.25,0.0,0.0,2.62,1.2141,1.6,0.7057,6.0,2.4495,True,trigonal,-3m,166,16.0732,6.1562,1.0
O16 P4 Rb4 Zn4,4,0.0,0.1429,0.0,0.5714,0.0,0.0,0.0,0.0,0.0,0.1429,-1.1429,2.62,1.0039,1.75,0.6075,3.0,1.1249,True,monoclinic,2,4,16.0738,3.6283,0.6048
As2 Cu4,2,0.0,0.0,0.0,0.0,0.0,0.0,0.3333,0.0,0.0,0.6667,0.3333,0.28,0.132,0.2,0.0943,0.0,0.0,True,tetragonal,4/mmm,129,14.3061,7.816,0.6389
Ba2 C8 O8,3,0.0,0.0,0.1111,0.4444,0.0,0.0,0.0,0.0,0.0,0.0,-2.4444,2.55,0.7834,1.55,0.4738,4.0,1.2571,True,tetragonal,4/mmm,140,14.5586,3.1603,0.8328
I2 Pb1,2,0.0,0.0,0.0,0.0,0.6667,0.0,0.0,0.0,0.0,0.0,0.0,0.33,0.1556,0.4,0.1886,1.0,0.4714,True,trigonal,-3m,166,49.9105,5.1126,1.0
Ge2 Nd2,2,0.0,0.0,0.0,0.0,0.0,0.5,0.5,0.0,0.5,0.0,-0.5,0.87,0.435,0.6,0.3,4.0,2.0,True,orthorhombic,mmm,63,25.4366,7.0792,0.6793
Ni3 S3,2,0.0,0.0,0.0,0.0,0.0,0.0,0.0,0.0,0.0,0.5,0.0,0.67,0.335,0.35,0.175,1.0,0.5,True,trigonal,3m,160,13.7579,5.4771,1.0
In1 Zr3,2,0.0,0.0,0.0,0.0,0.0,0.0,0.0,0.0,0.0,0.75,3.75,0.45,0.1949,0.0,0.0,0.0,0.0,True,cubic,m-3m,221,22.4553,7.1821,1.0
Ni2 O12 Ta4,3,0.0,0.0,0.0,0.6667,0.0,0.0,0.0,0.0,0.0,0.3333,0.0,1.94,0.8574,0.85,0.3859,4.0,1.663,True,tetragonal,4/mmm,136,11.6612,8.1735,0.5205
Al4 Dy6 Ni12,3,0.0,0.0,0.0,0.0,0.0,0.2727,0.0,0.0,0.2727,0.5455,2.4545,0.69,0.2955,0.5,0.1928,5.0,1.9285,True,cubic,m-3m,229,16.0424,8.4089,1.0
Mg1 Sc1,2,0.0,0.0,0.5,0.0,0.0,0.0,0.0,0.0,0.0,0.5,2.5,0.05,0.025,0.1,0.05,1.0,0.5,True,cubic,m-3m,221,23.2645,2.4718,1.0
Nd2 Se6 Yb2,3,0.0,0.0,0.0,0.6,0.0,0.4,0.0,0.0,0.4,0.0,0.0,2.55,1.0348,0.7,0.32,4.0,1.9596,True,orthorhombic,mmm,63,27.7107,6.6415,0.4434
As8 S12,2,0.0,0.0,0.0,0.0,0.0,0.0,0.4,0.0,0.0,0.0,-2.4,0.4,0.196,0.15,0.0735,1.0,0.4899,True,monoclinic,2/m,14,28.8344,2.8338,0.404
Ho6 Pd4,2,0.0,0.0,0.0,0.0,0.0,0.6,0.0,0.0,0.6,0.4,2.6,0.97,0.4752,0.35,0.1715,3.0,1.4697,True,tetragonal,4/mmm,127,23.7963,9.8759,0.5074
Al2 V6,2,0.0,0.0,0.0,0.0,0.0,0.0,0.0,0.0,0.0,0.75,4.5,0.02,0.0087,0.1,0.0433,1.0,0.433,True,cubic,m-3m,223,13.9057,5.3678,1.0
Nd1 Rb1 S2,3,0.0,0.25,0.0,0.0,0.0,0.25,0.0,0.0,0.25,0.0,0.0,1.76,0.808,1.35,0.5777,5.0,2.0463,True,trigonal,-3m,166,29.8538,4.086,1.0
Cu2 O2 Se2 Sm2,4,0.0,0.0,0.0,0.5,0.0,0.25,0.0,0.0,0.25,0.25,0.25,2.27,0.8358,1.25,0.4477,6.0,2.1794,True,tetragonal,4/mmm,129,17.3126,7.4062,0.4519
Au2 Dy1,2,0.0,0.0,0.0,0.0,0.0,0.3333,0.0,0.0,0.3333,0.6667,3.0,1.32,0.6223,0.4,0.1886,2.0,0.9428,True,tetragonal,4/mmm,139,21.3323,14.4378,0.7144
Cd2 Sb2 Yb1,3,0.0,0.0,0.0,0.0,0.0,0.2,0.4,0.0,0.2,0.4,0.2,2.05,0.7651,0.3,0.1095,3.0,1.2,True,trigonal,-3m,164,29.3132,7.2666,0.6204
C10 Ho8,2,0.0,0.0,0.0,0.0,0.0,0.4444,0.0,0.0,0.4444,0.0,-0.8889,1.32,0.6559,1.05,0.5217,6.0,2.9814,True,orthorhombic,mmm,55,15.7914,8.4098,0.3058
Er1 Hg1,2,0.0,0.0,0.0,0.0,0.0,0.5,0.0,0.0,0.5,0.5,2.0,0.76,0.38,0.25,0.125,2.0,1.0,True,cubic,m-3m,221,25.2782,12.0821,1.0
I2 Sb2 Te2,3,0.0,0.0,0.0,0.3333,0.3333,0.0,0.6667,0.0,0.0,0.0,-2.0,0.61,0.2765,0.05,0.0236,0.0,0.0,True,triclinic,-1,2,39.0763,5.3298,0.5554
Co2 Mn1 Sn1,3,0.0,0.0,0.0,0.0,0.0,0.0,0.0,0.0,0.0,0.75,0.5,0.41,0.1579,0.1,0.0415,1.0,0.433,True,cubic,m-3m,225,13.4389,9.005,1.0
Mg1 S8 Ti4,3,0.0,0.0,0.0769,0.0,0.0,0.0,0.0,0.0,0.0,0.3077,0.1538,1.27,0.5314,0.5,0.2058,1.0,0.4615,True,trigonal,-3m,166,18.9411,3.185,0.9944
S2 Si2 U2,3,0.3333,0.0,0.0,0.0,0.0,0.0,0.3333,0.0,0.3333,0.0,0.0,1.2,0.4913,0.75,0.3325,6.0,2.8284,True,tetragonal,4/mmm,129,19.7043,8.3761,0.5674
Ga2 Tb1,2,0.0,0.0,0.0,0.0,0.0,0.3333,0.0,0.0,0.3333,0.0,3.0,1.81,0.8532,0.45,0.2121,4.0,1.8856,True,hexagonal,6/mmm,191,21.2802,7.7609,1.021
Nb2 Ni8 P32,3,0.0,0.0,0.0,0.0,0.0,0.0,0.0,0.0,0.0,0.2381,-1.6667,0.59,0.1577,0.45,0.1588,2.0,0.5471,True,monoclinic,2/m,15,14.864,4.3796,0.51
Co2 Ga1 V1,3,0.0,0.0,0.0,0.0,0.0,0.0,0.0,0.0,0.0,0.75,3.0,0.25,0.1022,0.05,0.0217,0.0,0.0,True,cubic,m-3m,225,11.9138,8.3116,1.0
N1 Nd3 Tl1,3,0.0,0.0,0.0,0.0,0.0,0.6,0.0,0.0,0.6,0.0,1.4,1.9,0.7359,1.25,0.4854,6.0,2.3324,True,cubic,m-3m,221,39.7043,5.4463,1.0
Ba2 N4 Zr2,3,0.0,0.0,0.25,0.0,0.0,0.0,0.0,0.0,0.0,0.25,0.0,2.15,0.9775,1.5,0.6364,4.0,1.7854,True,tetragonal,4/mmm,129,18.7518,5.6799,0.4954
Cu2 Pr2 Sb4,3,0.0,0.0,0.0,0.0,0.0,0.25,0.5,0.0,0.25,0.25,-0.25,0.92,0.3817,0.5,0.192,4.0,1.5,True,tetragonal,4/mmm,129,24.6216,7.5531,0.4295
Dy4 Pb2 Pd4,3,0.0,0.0,0.0,0.0,0.0,0.4,0.0,0.0,0.4,0.4,2.4,1.11,0.5036,0.4,0.1806,3.0,1.3565,True,tetragonal,4/mmm,127,22.7872,10.8584,0.4508
Ca4 Mn2 O12 W2,4,0.0,0.0,0.2,0.6,0.0,0.0,0.0,0.0,0.0,0.2,-0.2,2.44,1.0239,1.2,0.5022,4.0,1.3416,True,monoclinic,2/m,14,12.5642,5.4839,0.6966
Ga4 S4,2,0.0,0.0,0.0,0.0,0.0,0.0,0.0,0.0,0.0,0.0,0.5,0.77,0.385,0.3,0.15,1.0,0.5,True,hexagonal,6/mmm,194,24.8139,3.4058,0.2081
Cr4 Li4 O28 P8,4,0.0,0.0909,0.0,0.6364,0.0,0.0,0.0,0.0,0.0,0.0909,-1.4545,2.46,0.8642,0.85,0.3215,2.0,0.6428,True,monoclinic,2/m,11,11.2258,3.1316,1.371
Ba8 Ge4,2,0.0,0.0,0.6667,0.0,0.0,0.0,0.3333,0.0,0.0,0.0,0.0,1.12,0.528,0.9,0.4243,2.0,0.9428,True,orthorhombic,mmm,62,40.0485,4.8,0.5344
Se6 U2,2,0.25,0.0,0.0,0.75,0.0,0.0,0.0,0.0,0.25,0.0,0.0,1.17,0.5066,0.6,0.2598,5.0,2.1651,True,monoclinic,2/m,11,29.1371,6.7663,0.3957
Cr4 La4 O12,3,0.0,0.0,0.0,0.6,0.0,0.2,0.0,0.0,0.2,0.4,0.0,2.34,1.0246,1.35,0.5546,6.0,2.3324,True,orthorhombic,mmm,62,12.3217,6.4391,0.7114