formula,numberOfSpecies,fracActinoid,fracAlkali,fracAlkaline,fracChalcogen,fracHalogen,fracLanthanoid,fracMetalloid,fracNobleGas,fracRareEarth,fracTransitionMetal,electronsPerAtom,electronegativityRange,electronegativityStd,radiiRange,radiiStd,rowRange,rowStd,ordered,crystalSystem,pointGroup,spaceGroupNumber,volumePerSite,density,c_a
H1 K1,2,0.0,0.5,0.0,0.0,0.0,0.0,0.0,0.0,0.0,0.0,0.0,1.38,0.69,1.95,0.975,3.0,1.5,True,cubic,m-3m,225,23.1046,1.4412,1.0
Ca6 Rh8 Sn26,3,0.0,0.0,0.15,0.0,0.0,0.0,0.0,0.0,0.0,0.2,-1.7,1.28,0.3903,0.45,0.139,1.0,0.3571,True,cubic,m-3m,223,23.8418,7.2263,1.0
Fe2 Li6 O16 P4,4,0.0,0.2143,0.0,0.5714,0.0,0.0,0.0,0.0,0.0,0.0714,-1.2143,2.46,1.0157,0.85,0.3681,2.0,0.589,True,monoclinic,2/m,11,10.0094,3.1593,1.3119
Cr4 Mg2 O8,3,0.0,0.0,0.1429,0.5714,0.0,0.0,0.0,0.0,0.0,0.2857,0.0,2.13,0.9448,0.9,0.4135,2.0,0.8806,True,cubic,m-3m,227,10.9306,4.1733,1.0
B12 H12 Tl2,3,0.0,0.0,0.0,0.0,0.0,0.0,0.4615,0.0,0.0,0.0,1.0,0.58,0.1538,1.65,0.461,5.0,1.2918,True,cubic,m-3,202,12.2815,2.8632,1.0
Ni4 Pr2,2,0.0,0.0,0.0,0.0,0.0,0.3333,0.0,0.0,0.3333,0.6667,2.3333,0.78,0.3677,0.5,0.2357,4.0,1.8856,True,cubic,m-3m,227,16.498,8.6659,1.0
K4 O12 Sr1 U3,4,0.15,0.2,0.05,0.6,0.0,0.0,0.0,0.0,0.15,0.0,-0.0,2.62,1.1843,1.6,0.7014,7.0,2.4576,True,cubic,m-3m,229,16.8934,5.6524,1.0
B8 Gd4 O18,3,0.0,0.0,0.0,0.6,0.0,0.1333,0.2667,0.0,0.1333,0.0,0.0,2.24,0.8603,1.2,0.3966,6.0,2.0396,True,triclinic,-1,2,9.7238,5.7121,0.8279
Ru2 Sc4 Si4,3,0.0,0.0,0.0,0.0,0.0,0.0,0.4,0.0,0.0,0.6,0.2,0.84,0.3321,0.5,0.2245,2.0,0.7483,True,monoclinic,2/m,12,17.334,4.7353,0.4721
Ca1 Cu2 Ge2,3,0.0,0.0,0.2,0.0,0.0,0.0,0.4,0.0,0.0,0.4,-0.4,1.01,0.3852,0.55,0.2049,0.0,0.0,True,tetragonal,4/mmm,139,17.6903,5.8657,0.7008
Cu2 In1 Ti1,3,0.0,0.0,0.0,0.0,0.0,0.0,0.0,0.0,0.0,0.75,2.75,0.36,0.147,0.2,0.082,1.0,0.433,True,cubic,m-3m,225,15.3488,7.8375,1.0
S1 Sm1,2,0.0,0.0,0.0,0.0,0.0,0.5,0.0,0.0,0.5,0.0,0.5,1.41,0.705,0.85,0.425,5.0,2.5,True,cubic,m-3m,225,22.7941,6.6448,1.0
Fe4 P12 Th1,3,0.0588,0.0,0.0,0.0,0.0,0.0,0.0,0.0,0.0588,0.2353,-1.4118,0.89,0.2415,0.8,0.2353,6.0,1.4167,True,cubic,m-3,204,13.9823,5.7781,1.0
Ag6 Rb2 Se4,3,0.0,0.1667,0.0,0.3333,0.0,0.0,0.0,0.0,0.0,0.5,0.0,1.73,0.5771,1.2,0.4008,1.0,0.4714,True,monoclinic,2/m,12,26.0622,6.0209,0.4898
Al4 Mg4 Si4,3,0.0,0.0,0.3333,0.0,0.0,0.0,0.3333,0.0,0.0,0.0,0.3333,0.59,0.2409,0.4,0.165,0.0,0.0,True,orthorhombic,mmm,62,17.9297,2.4503,0.4893
Ag1 Li2 Pb1,3,0.0,0.5,0.0,0.0,0.0,0.0,0.0,0.0,0.0,0.25,1.25,1.35,0.5921,0.35,0.1436,4.0,1.7854,True,cubic,-43m,216,19.3959,7.0406,1.0
Ba2 Cu3 O7 Pr1,4,0.0,0.0,0.1538,0.5385,0.0,0.0769,0.0,0.0,0.0769,0.2308,-0.0769,2.55,1.0497,1.55,0.6016,6.0,1.946,True,orthorhombic,mmm,47,14.1555,6.4807,0.332
Nb1 Zn3,2,0.0,0.0,0.0,0.0,0.0,0.0,0.0,0.0,0.0,1.0,2.75,0.05,0.0217,0.1,0.0433,1.0,0.433,True,cubic,m-3m,221,15.3838,7.8023,1.0
Ni3 Pr3 Sn3,3,0.0,0.0,0.0,0.0,0.0,0.3333,0.0,0.0,0.3333,0.3333,0.3333,0.83,0.38,0.5,0.216,4.0,1.6997,True,hexagonal,-6m2,189,21.8657,8.0578,1.8329
C4 H4 O8 Rb4,4,0.0,0.2,0.0,0.4,0.0,0.0,0.0,0.0,0.0,0.0,-1.6,2.62,0.9676,2.1,0.7409,4.0,1.3565,True,orthorhombic,mmm,57,16.6557,2.6018,0.5035
Br4 F32 Sb4,3,0.0,0.0,0.0,0.0,0.9,0.0,0.1,0.0,0.0,0.0,-1.2,1.93,0.6241,0.95,0.327,3.0,1.0247,True,orthorhombic,mmm,54,17.237,3.4069,0.5331
Cl16 Re4,2,0.0,0.0,0.0,0.0,0.8,0.0,0.0,0.0,0.0,0.2,0.0,1.26,0.504,0.35,0.14,3.0,1.2,True,monoclinic,2/m,13,29.6863,3.6696,0.5402
Na4 O28 P8 Ti4,4,0.0,0.0909,0.0,0.6364,0.0,0.0,0.0,0.0,0.0,0.0909,-1.3636,2.51,0.889,1.2,0.3916,2.0,0.6556,True,monoclinic,2/m,14,12.5034,2.9555,0.7595
O4 Pt2,2,0.0,0.0,0.0,0.6667,0.0,0.0,0.0,0.0,0.0,0.3333,-0.6667,1.16,0.5468,0.75,0.3536,4.0,1.8856,True,hexagonal,6mm,186,13.6349,9.2185,0.3353
Dy2 O38 Ta14,3,0.0,0.0,0.0,0.7037,0.0,0.037,0.0,0.0,0.037,0.2593,-0.0,2.22,0.9032,1.15,0.4088,6.0,1.9738,True,hexagonal,-6m2,188,12.6558,8.4222,0.3123
Cr4 Li12 O32 P8,4,0.0,0.2143,0.0,0.5714,0.0,0.0,0.0,0.0,0.0,0.0714,-1.1429,2.46,1.026,0.85,0.3681,2.0,0.589,True,monoclinic,2,4,12.0943,2.5769,1.0388
Ge3 Nd2 Zn6,3,0.0,0.0,0.0,0.0,0.0,0.1818,0.2727,0.0,0.1818,0.5455,0.5455,0.87,0.2874,0.6,0.2101,4.0,1.5428,True,hexagonal,-6m2,189,19.1061,7.1019,1.8689
As4 O8 Rb4,3,0.0,0.25,0.0,0.5,0.0,0.0,0.25,0.0,0.0,0.0,-1.5,2.62,1.0826,1.75,0.7146,3.0,1.299,True,orthorhombic,mmm,57,21.3145,3.7471,0.707
Cl12 Pt6,2,0.0,0.0,0.0,0.0,0.6667,0.0,0.0,0.0,0.0,0.3333,0.0,0.88,0.4148,0.35,0.165,3.0,1.4142,True,trigonal,-3m,166,28.6782,5.1338,1.0
Ce1 Li2 N2,3,0.0,0.4,0.0,0.0,0.0,0.2,0.0,0.0,0.2,0.0,-0.2,2.06,0.9877,1.2,0.48,6.0,2.4,True,trigonal,-3m,164,12.2228,4.9455,0.6564
Ce1 Re4 Si2,3,0.0,0.0,0.0,0.0,0.0,0.1429,0.2857,0.0,0.1429,0.5714,1.5714,0.78,0.2729,0.75,0.2315,5.0,1.6782,True,orthorhombic,mmm,65,16.9604,13.1631,0.5594
Au6 O4 Rb10,3,0.0,0.5,0.0,0.2,0.0,0.0,0.0,0.0,0.0,0.3,1.0,2.62,1.0857,1.75,0.7,4.0,1.4177,True,orthorhombic,mmm,55,31.8127,5.482,0.3974
Li1 Se6 Ti3,3,0.0,0.1,0.0,0.6,0.0,0.0,0.0,0.0,0.0,0.3,0.1,1.57,0.5839,0.3,0.1293,2.0,0.6,True,trigonal,-3m,164,25.0563,4.1374,0.1582
Al2 Li2 Te4,3,0.0,0.25,0.0,0.5,0.0,0.0,0.5,0.0,0.0,0.0,0.0,1.12,0.46,0.2,0.075,3.0,1.299,True,tetragonal,-42m,122,30.7289,3.9059,0.8569
Ce2 In2 Pd4,3,0.0,0.0,0.0,0.0,0.0,0.25,0.0,0.0,0.25,0.5,2.5,1.08,0.4417,0.45,0.1837,3.0,1.299,True,hexagonal,6/mmm,194,21.5955,8.9921,0.5173
Ba1 Nb1 O3,3,0.0,0.0,0.2,0.6,0.0,0.0,0.0,0.0,0.0,0.2,0.2,2.55,1.0985,1.55,0.6282,4.0,1.7436,True,cubic,m-3m,221,14.3399,6.4438,1.0
Co8 F8 Na16 O32 P8,5,0.0,0.2222,0.0,0.4444,0.1111,0.0,0.0,0.0,0.0,0.1111,-0.8889,3.05,1.1047,1.3,0.5044,2.0,0.6849,True,orthorhombic,mmm,60,12.0993,3.3378,0.38
B32 Cd8 O56,3,0.0,0.0,0.0,0.5833,0.0,0.0,0.3333,0.0,0.0,0.0833,0.0,1.75,0.7303,0.95,0.2639,3.0,0.8292,True,orthorhombic,mmm,61,11.2233,3.3,0.5866
N2 Ti4,2,0.0,0.0,0.0,0.0,0.0,0.0,0.0,0.0,0.0,0.6667,1.6667,1.5,0.7071,0.75,0.3536,2.0,0.9428,True,tetragonal,4/mmm,136,12.4434,4.8815,0.6118
C2 Gd4 I2,3,0.0,0.0,0.0,0.0,0.25,0.5,0.0,0.0,0.5,0.0,0.25,1.46,0.7036,1.1,0.4493,6.0,2.4875,True,hexagonal,6/mmm,194,23.5817,7.982,0.2542
Ga3 Ni2,2,0.0,0.0,0.0,0.0,0.0,0.0,0.0,0.0,0.0,0.4,2.6,0.1,0.049,0.05,0.0245,0.0,0.0,True,trigonal,-3m,164,14.1032,7.6899,0.8268
Cd1 Li2 Sn1,3,0.0,0.5,0.0,0.0,0.0,0.0,0.0,0.0,0.0,0.25,0.0,0.98,0.4331,0.1,0.0433,3.0,1.5,True,cubic,m-3m,225,19.0565,5.3372,1.0
La4 Li2 O12 Sb2,4,0.0,0.1,0.0,0.6,0.0,0.2,0.1,0.0,0.2,0.2,-0.8,2.46,1.0798,1.35,0.5616,6.0,2.4187,True,monoclinic,2/m,14,13.3076,6.2704,0.7023
Ce1 Os2 Si2,3,0.0,0.0,0.0,0.0,0.0,0.2,0.4,0.0,0.2,0.4,0.6,1.08,0.3955,0.75,0.275,5.0,1.9391,True,tetragonal,4/mmm,139,17.2377,11.1118,0.7338
Li2 O24 P6 V4,4,0.0,0.0556,0.0,0.6667,0.0,0.0,0.0,0.0,0.0,0.1111,-1.2222,2.46,0.8139,0.85,0.3007,2.0,0.6781,True,monoclinic,2/m,15,12.1679,2.9852,1.3656
Cu2 I2,2,0.0,0.0,0.0,0.0,0.5,0.0,0.0,0.0,0.0,0.5,0.5,0.76,0.38,0.05,0.025,1.0,0.5,True,trigonal,-3m,166,28.8545,5.4801,1.0
Al4 H16 O24 P4,4,0.0,0.0,0.0,0.5,0.0,0.0,0.0,0.0,0.0,0.0,-1.3333,1.83,0.6877,1.0,0.2975,2.0,0.6872,True,monoclinic,2/m,14,8.9197,2.4509,0.5422
Br12 C12 H36 N4 P4,5,0.0,0.0,0.0,0.0,0.1765,0.0,0.0,0.0,0.0,0.0,-1.7647,0.85,0.3243,0.9,0.3572,3.0,1.1315,True,monoclinic,2/m,14,15.6241,2.0618,0.4373
Bi3 Li6 O24 P6,4,0.0,0.1538,0.0,0.6154,0.0,0.0,0.0,0.0,0.0,0.0,-1.3077,2.46,0.9296,1.0,0.3744,4.0,1.0824,True,triclinic,1,1,12.9154,4.0827,1.0913
H10 Sc4,2,0.0,0.0,0.0,0.0,0.0,0.0,0.0,0.0,0.0,0.2857,0.1429,0.84,0.3795,1.35,0.6099,3.0,1.3553,True,orthorhombic,mmm,59,8.3254,2.7055,0.555
P4 Ti4,2,0.0,0.0,0.0,0.0,0.0,0.0,0.0,0.0,0.0,0.5,0.5,0.65,0.325,0.4,0.2,1.0,0.5,True,hexagonal,6/mmm,194,15.5131,4.2196,0.2982
B4 Li12 N8,3,0.0,0.5,0.0,0.0,0.0,0.0,0.1667,0.0,0.0,0.0,0.0,2.06,0.9254,0.8,0.3727,0.0,0.0,True,monoclinic,2/m,14,9.5316,1.7319,0.7256
Ca2 Co1 O3,3,0.0,0.0,0.3333,0.5,0.0,0.0,0.0,0.0,0.0,0.1667,-0.0,2.44,1.1127,1.2,0.546,2.0,1.0,True,monoclinic,m,8,19.3936,2.6698,0.3018
Al1 Cr2,2,0.0,0.0,0.0,0.0,0.0,0.0,0.0,0.0,0.0,0.6667,3.0,0.05,0.0236,0.15,0.0707,1.0,0.4714,True,tetragonal,4/mmm,139,12.6107,5.7487,0.616
Ba4 Cl16 Pd4,3,0.0,0.0,0.1667,0.0,0.6667,0.0,0.0,0.0,0.0,0.1667,0.0,2.27,0.8501,1.15,0.4247,3.0,1.2134,True,orthorhombic,mmm,60,28.6963,3.7185,0.552
Au1 In1 Li2,3,0.0,0.5,0.0,0.0,0.0,0.0,0.0,0.0,0.0,0.25,2.0,1.56,0.6483,0.2,0.0707,4.0,1.7854,True,cubic,-43m,216,17.5672,7.6959,1.0
F8 Sn4,2,0.0,0.0,0.0,0.0,0.6667,0.0,0.0,0.0,0.0,0.0,-2.0,2.02,0.9522,0.95,0.4478,3.0,1.4142,True,orthorhombic,222,19,19.3065,4.4927,0.6063
O24 Sr4 Ta8,3,0.0,0.0,0.1111,0.6667,0.0,0.0,0.0,0.0,0.0,0.2222,0.0,2.49,1.0121,1.4,0.5096,4.0,1.7498,True,orthorhombic,mmm,62,13.5865,7.4081,0.508
Cu1 Na1 O2,3,0.0,0.25,0.0,0.5,0.0,0.0,0.0,0.0,0.0,0.25,-0.25,2.51,1.069,1.2,0.5128,2.0,0.8292,True,monoclinic,2/m,12,12.0871,4.0711,0.5087
Hf4 Si2,2,0.0,0.0,0.0,0.0,0.0,0.0,0.3333,0.0,0.0,0.6667,1.3333,0.6,0.2828,0.45,0.2121,3.0,1.4142,True,tetragonal,4/mmm,140,18.7453,11.3703,0.976
Nd2 P10,2,0.0,0.0,0.0,0.0,0.0,0.1667,0.0,0.0,0.1667,0.0,-2.0,1.05,0.3913,0.85,0.3168,5.0,1.8634,True,monoclinic,2/m,11,21.6287,3.8274,0.5266
Cu2 Ho2 Pb2,3,0.0,0.0,0.0,0.0,0.0,0.3333,0.0,0.0,0.3333,0.3333,2.3333,1.1,0.4526,0.45,0.2014,4.0,1.633,True,hexagonal,6mm,186,22.5059,10.7151,0.6271
B2 Os3 U1,3,0.1667,0.0,0.0,0.0,0.0,0.0,0.3333,0.0,0.1667,0.5,4.0,0.82,0.2907,0.9,0.3092,7.0,2.4777,True,hexagonal,6/mmm,191,13.2497,17.344,1.8795
Cr2 Ni1 S4,3,0.0,0.0,0.0,0.0,0.0,0.0,0.0,0.0,0.0,0.4286,0.0,0.92,0.4212,0.4,0.1903,1.0,0.4949,True,monoclinic,2/m,12,14.1339,4.8832,0.497
Co5 Nd1,2,0.0,0.0,0.0,0.0,0.0,0.1667,0.0,0.0,0.1667,0.8333,2.1667,0.74,0.2758,0.5,0.1863,4.0,1.4907,True,hexagonal,6/mmm,191,14.3224,8.4812,1.2729
Al4 Na4 O8,3,0.0,0.25,0.0,0.5,0.0,0.0,0.0,0.0,0.0,0.0,0.0,2.51,1.1113,1.2,0.5017,1.0,0.5,True,orthorhombic,mm2,33,12.7515,2.6686,0.7483
Br10 Pb4 Rb2,3,0.0,0.125,0.0,0.0,0.625,0.0,0.0,0.0,0.0,0.0,0.0,2.14,0.7007,1.2,0.4336,2.0,0.857,True,tetragonal,4/mmm,140,35.2661,5.2936,0.8759
O44 P8 Te12,3,0.0,0.0,0.0,0.875,0.0,0.0,0.1875,0.0,0.0,0.0,-2.125,1.34,0.6049,0.8,0.3162,3.0,1.1575,True,monoclinic,2/m,14,14.9034,4.3227,0.5922
Ag1 Hg2 Ti1,3,0.0,0.0,0.0,0.0,0.0,0.0,0.0,0.0,0.0,1.0,1.75,0.46,0.1912,0.2,0.0707,2.0,0.8292,True,tetragonal,4/mmm,123,20.0854,11.5106,0.9476
Cr3 N1 Pd1,3,0.0,0.0,0.0,0.0,0.0,0.0,0.0,0.0,0.0,0.8,1.6,1.38,0.5401,0.75,0.3,3.0,0.9798,True,cubic,m-3m,221,11.324,8.1066,1.0
Ca1 Cu3 O12 Ru4,4,0.0,0.0,0.05,0.6,0.0,0.0,0.0,0.0,0.0,0.35,-0.2,2.44,0.7744,1.2,0.3959,3.0,1.2649,True,cubic,m-3,204,10.4922,6.5442,1.0
Cu8 O7,2,0.0,0.0,0.0,0.4667,0.0,0.0,0.0,0.0,0.0,0.5333,0.1333,1.54,0.7683,0.75,0.3742,2.0,0.9978,True,monoclinic,2,5,11.5321,5.9552,0.9139
Cl12 Fe2 K6 Na2,4,0.0,0.3636,0.0,0.0,0.5455,0.0,0.0,0.0,0.0,0.0909,0.0,2.34,1.0868,1.2,0.5244,1.0,0.481,True,trigonal,-3m,167,27.1601,2.2724,1.0
Al24 Ca12 O48,3,0.0,0.0,0.1429,0.5714,0.0,0.0,0.0,0.0,0.0,0.0,0.0,2.44,1.0237,1.2,0.446,2.0,0.7284,True,monoclinic,2/m,14,13.1875,2.8428,0.5353
Ba2 Eu1 O6 Ta1,4,0.0,0.0,0.2,0.6,0.0,0.1,0.0,0.0,0.1,0.1,-0.1,3.44,1.3274,1.55,0.6623,6.0,2.2716,True,tetragonal,4/m,87,16.0065,7.2988,0.9943
Ag8 Hf4 S12,3,0.0,0.0,0.0,0.0,0.0,0.0,0.0,0.0,0.0,0.5,-0.0,1.28,0.4785,0.6,0.2921,3.0,1.2134,True,orthorhombic,mmm,64,20.6621,6.5689,0.5238
Ni4 Y4,2,0.0,0.0,0.0,0.0,0.0,0.0,0.0,0.0,0.0,1.0,2.5,0.69,0.345,0.45,0.225,1.0,0.5,True,orthorhombic,mmm,62,20.2263,6.0588,0.5782
O12 Th2 Ti4,3,0.1111,0.0,0.0,0.6667,0.0,0.0,0.0,0.0,0.1111,0.2222,0.0,2.14,0.9357,1.2,0.4532,7.0,2.1999,True,monoclinic,2/m,15,12.4217,6.2944,0.753
Mg4 N6 P2,3,0.0,0.0,0.3333,0.0,0.0,0.0,0.0,0.0,0.0,0.0,-1.3333,1.73,0.7759,0.85,0.3801,1.0,0.5,True,orthorhombic,mm2,36,11.0507,3.0455,0.8412
Ca6 Cr2 N6,3,0.0,0.0,0.4286,0.0,0.0,0.0,0.0,0.0,0.0,0.1429,0.0,2.04,0.9527,1.15,0.5359,2.0,0.9897,True,orthorhombic,mmm,63,15.6781,3.2417,0.7611
Ba2 Ni1 O6 U1,4,0.1,0.0,0.2,0.6,0.0,0.0,0.0,0.0,0.1,0.1,0.0,2.55,1.0972,1.55,0.6473,7.0,2.3685,True,cubic,m-3m,225,15.0172,7.3795,1.0
C1 N2 Nd2 O2,4,0.0,0.0,0.0,0.2857,0.0,0.2857,0.0,0.0,0.2857,0.0,-1.1429,2.3,0.9289,1.25,0.5475,6.0,2.7105,True,trigonal,-3m,164,15.9354,5.3666,0.4687
Al12 Ca10 O28,3,0.0,0.0,0.2,0.56,0.0,0.0,0.0,0.0,0.0,0.0,-0.0,2.44,1.0652,1.2,0.4823,2.0,0.794,True,orthorhombic,mm2,36,13.1199,2.9681,0.7641
Ba1 P2 Ru2,3,0.0,0.0,0.2,0.0,0.0,0.0,0.0,0.0,0.0,0.4,0.4,1.31,0.522,1.15,0.4219,3.0,1.2,True,tetragonal,4/mmm,139,20.2849,6.572,0.6021
Cd8 Cl4 H12 O12,4,0.0,0.0,0.0,0.3333,0.1111,0.0,0.0,0.0,0.0,0.2222,-0.6667,1.75,0.7123,1.3,0.4898,4.0,1.499,True,orthorhombic,mmm,62,14.6807,3.9123,0.6896
As2 Cu4 Sr1,3,0.0,0.0,0.1429,0.0,0.0,0.0,0.2857,0.0,0.0,0.5714,0.5714,1.23,0.385,0.85,0.2655,1.0,0.3499,True,trigonal,-3m,166,17.1511,6.8001,1.0
Ge2 Rh2 Y1,3,0.0,0.0,0.0,0.0,0.0,0.0,0.4,0.0,0.0,0.6,0.2,1.06,0.3892,0.55,0.2049,1.0,0.4899,True,tetragonal,4/mmm,139,17.8771,8.174,0.6953
Ni2 Si2 Sm1,3,0.0,0.0,0.0,0.0,0.0,0.2,0.4,0.0,0.2,0.4,-0.2,0.74,0.294,0.75,0.2739,5.0,1.8547,True,tetragonal,4/mmm,139,15.4573,6.9595,0.7221
As4 Mo5,2,0.0,0.0,0.0,0.0,0.0,0.0,0.4444,0.0,0.0,0.5556,0.8889,0.02,0.0099,0.3,0.1491,1.0,0.4969,True,tetragonal,4/m,87,17.2155,8.353,0.4683
Cu1 N6 O12 Pb1 Rb2,5,0.0,0.0909,0.0,0.5455,0.0,0.0,0.0,0.0,0.0,0.0455,-1.6364,2.62,0.7828,1.75,0.5494,4.0,1.1957,True,orthorhombic,mmm,69,14.8205,3.6552,0.9995
C8 Cl64 W16,3,0.0,0.0,0.0,0.0,0.7273,0.0,0.0,0.0,0.0,0.1818,-0.3636,0.8,0.3314,0.65,0.1707,4.0,1.2332,True,orthorhombic,mmm,61,31.8232,3.1465,0.7208
Hf1 Pt1 Sn1,3,0.0,0.0,0.0,0.0,0.0,0.0,0.0,0.0,0.0,0.6667,0.6667,0.98,0.408,0.2,0.0816,1.0,0.4714,True,cubic,-43m,216,23.0669,11.8128,1.0
Hf2 Mo4,2,0.0,0.0,0.0,0.0,0.0,0.0,0.0,0.0,0.0,1.0,4.0,0.86,0.4054,0.1,0.0471,1.0,0.4714,True,cubic,m-3m,227,18.1825,11.2748,1.0
K2 N6 Ni1 O12 Pb1,5,0.0,0.0909,0.0,0.5455,0.0,0.0,0.0,0.0,0.0,0.0455,-1.6364,2.62,0.7821,1.6,0.5129,4.0,1.0325,True,cubic,m-3,202,14.2788,3.278,1.0
Na10 Sn12 Yb1,3,0.0,0.4348,0.0,0.0,0.0,0.0435,0.0,0.0,0.0435,0.0,-1.5217,1.96,0.5866,0.35,0.1729,5.0,1.2586,True,cubic,-43m,217,31.2995,4.2153,1.0
Ho1 Ni1 Sb1,3,0.0,0.0,0.0,0.0,0.0,0.3333,0.3333,0.0,0.3333,0.3333,0.6667,0.82,0.3581,0.4,0.17,4.0,1.6997,True,cubic,-43m,216,21.1411,9.0428,1.0
Al4 C12 Cl8 H36 O4 Si4,6,0.0,0.0,0.0,0.0588,0.1176,0.0,0.0588,0.0,0.0,0.0,-1.5294,1.83,0.4562,1.0,0.3496,2.0,0.8235,True,monoclinic,2/m,14,14.881,1.228,0.4569
Sb1 Y1,2,0.0,0.0,0.0,0.0,0.0,0.0,0.5,0.0,0.0,0.5,0.0,0.83,0.415,0.35,0.175,0.0,0.0,True,cubic,m-3m,225,30.0087,5.8286,1.0
Ce2 O8 Sr4,3,0.0,0.0,0.2857,0.5714,0.0,0.1429,0.0,0.0,0.1429,0.0,-0.1429,2.49,1.2053,1.4,0.6697,6.0,2.1853,True,orthorhombic,mmm,55,16.7247,5.3807,0.3474
Ag2 Co2 O4,3,0.0,0.0,0.0,0.5,0.0,0.0,0.0,0.0,0.0,0.5,-0.25,1.56,0.7677,1.0,0.4463,3.0,1.299,True,hexagonal,6/mmm,194,11.2929,7.308,0.2343
Ga8 K8 Na32 O32,4,0.0,0.5,0.0,0.4,0.0,0.0,0.0,0.0,0.0,0.0,0.0,2.62,1.1959,1.6,0.6139,2.0,0.7483,True,orthorhombic,mmm,61,15.2243,2.888,0.3192
Sb2 Se4 Tl2,3,0.0,0.0,0.0,0.5,0.0,0.0,0.25,0.0,0.0,0.0,-1.5,0.93,0.3885,0.75,0.307,2.0,0.8292,True,orthorhombic,mmm,65,35.1599,5.7154,0.2816
Ga4 Ta6,2,0.0,0.0,0.0,0.0,0.0,0.0,0.0,0.0,0.0,0.6,4.2,0.31,0.1519,0.15,0.0735,2.0,0.9798,True,tetragonal,4/mmm,127,16.7929,13.4934,0.5091
O8 Pb4,2,0.0,0.0,0.0,0.6667,0.0,0.0,0.0,0.0,0.0,0.0,-0.6667,1.11,0.5233,1.2,0.5657,4.0,1.8856,True,orthorhombic,mmm,60,14.3994,9.1948,0.84
Gd2 O3,2,0.0,0.0,0.0,0.6,0.0,0.4,0.0,0.0,0.4,0.0,0.0,2.24,1.0974,1.2,0.5879,6.0,2.9394,True,trigonal,-3m,164,14.4714,8.3191,0.6294
B20 Nd4 Ni4 O40,4,0.0,0.0,0.0,0.5882,0.0,0.0588,0.2941,0.0,0.0588,0.0588,0.0,2.3,0.7871,1.25,0.3269,6.0,1.46,True,monoclinic,2/m,14,9.3667,4.3485,0.7996
O12 P4 Rb4,3,0.0,0.2,0.0,0.6,0.0,0.0,0.0,0.0,0.0,0.0,-1.6,2.62,1.0423,1.75,0.6779,3.0,1.1662,True,monoclinic,2/m,14,17.5457,3.1125,0.3503
F12 Y4,2,0.0,0.0,0.0,0.0,0.75,0.0,0.0,0.0,0.0,0.25,0.0,2.76,1.1951,1.3,0.5629,3.0,1.299,True,orthorhombic,mmm,62,12.6763,4.7781,0.6623
C2 Cr4 Ga2,3,0.0,0.0,0.0,0.0,0.0,0.0,0.0,0.0,0.0,0.5,1.25,0.89,0.3688,0.7,0.2915,2.0,0.866,True,hexagonal,6/mmm,194,11.1942,6.8876,0.2292
As2 Li6 O8,3,0.0,0.375,0.0,0.5,0.0,0.0,0.125,0.0,0.0,0.0,-1.0,2.46,1.1408,0.85,0.3982,2.0,0.6614,True,orthorhombic,mm2,31,10.993,3.0162,0.7936
Sm1 Te1,2,0.0,0.0,0.0,0.5,0.0,0.5,0.5,0.0,0.5,0.0,0.5,0.93,0.465,0.45,0.225,3.0,1.5,True,cubic,m-3m,221,28.4262,8.1186,1.0
Be17 Ti2,2,0.0,0.0,0.8947,0.0,0.0,0.0,0.0,0.0,0.0,0.1053,2.2105,0.03,0.0092,0.35,0.1074,2.0,0.6138,True,trigonal,-3m,166,8.7769,2.4789,1.0
Cd4 O14 Os4,3,0.0,0.0,0.0,0.6364,0.0,0.0,0.0,0.0,0.0,0.3636,-0.1818,1.75,0.7354,0.95,0.404,4.0,1.7104,True,cubic,m-3m,227,12.4493,8.6976,1.0
Ge4 O14 Yb4,3,0.0,0.0,0.0,0.6364,0.0,0.1818,0.1818,0.0,0.1818,0.0,-1.4545,3.44,1.3188,1.15,0.4584,6.0,2.2709,True,cubic,m-3m,227,11.3646,8.0145,1.0
Mg8 Yb4,2,0.0,0.0,0.6667,0.0,0.0,0.3333,0.0,0.0,0.3333,0.0,2.3333,1.31,0.6175,0.25,0.1179,5.0,2.357,True,hexagonal,6/mmm,194,28.1163,4.3635,0.6266
B2 Cs2 Na4 O6,4,0.0,0.4286,0.0,0.4286,0.0,0.0,0.1429,0.0,0.0,0.0,0.0,2.65,1.1851,2.0,0.742,4.0,1.3553,True,orthorhombic,mmm,59,15.0379,3.7496,0.8976
Na2 Pd6 Si4,3,0.0,0.1667,0.0,0.0,0.0,0.0,0.3333,0.0,0.0,0.5,-0.1667,1.27,0.4491,0.7,0.2357,2.0,1.0,True,orthorhombic,mm2,44,16.8661,6.5377,0.8547
C2 Tb1,2,0.0,0.0,0.0,0.0,0.0,0.3333,0.0,0.0,0.3333,0.0,-1.6667,2.55,1.2021,1.05,0.495,6.0,2.8284,True,tetragonal,4/mmm,139,14.1943,7.1341,0.9068
C4 Er4 Ni13,3,0.0,0.0,0.0,0.0,0.0,0.1905,0.0,0.0,0.1905,0.619,1.0476,1.31,0.4043,1.05,0.3297,6.0,1.9143,True,orthorhombic,mmm,65,12.7574,9.1739,0.4594
As8 Na8 O16,3,0.0,0.25,0.0,0.5,0.0,0.0,0.25,0.0,0.0,0.0,-1.5,2.51,1.041,1.2,0.4942,2.0,0.8292,True,orthorhombic,mmm,61,17.4492,3.0907,0.3251
Ca4 In4,2,0.0,0.0,0.5,0.0,0.0,0.0,0.0,0.0,0.0,0.0,2.5,0.78,0.39,0.25,0.125,1.0,0.5,True,tetragonal,4/mmm,139,28.816,4.463,1.0
Cu4 Si2 Zr3,3,0.0,0.0,0.0,0.0,0.0,0.0,0.2222,0.0,0.0,0.7778,1.3333,0.57,0.2687,0.45,0.1646,2.0,0.737,True,hexagonal,-6m2,189,15.6533,6.8839,1.5983
Cl18 Nb6 Rb4,3,0.0,0.1429,0.0,0.0,0.6429,0.0,0.0,0.0,0.0,0.2143,0.5714,2.34,0.9256,1.35,0.4691,2.0,0.9583,True,monoclinic,2/m,12,29.05,3.1387,0.9854
B20 Li1 Mg9,3,0.0,0.0333,0.3,0.0,0.0,0.0,0.6667,0.0,0.0,0.0,2.6333,1.06,0.3642,0.65,0.3042,1.0,0.4583,True,triclinic,-1,2,9.5536,2.5603,0.8678
Mn6 O18 Yb6,3,0.0,0.0,0.0,0.6,0.0,0.2,0.0,0.0,0.2,0.2,-0.2,3.44,1.3946,1.15,0.4903,6.0,2.3324,True,hexagonal,6mm,185,12.4798,7.3442,0.5206
Sb1 Sc1,2,0.0,0.0,0.0,0.0,0.0,0.0,0.5,0.0,0.0,0.5,0.0,0.69,0.345,0.15,0.075,1.0,0.5,True,cubic,m-3m,225,25.5738,5.4125,1.0
Er6 Ga2 O12,3,0.0,0.0,0.0,0.6,0.0,0.3,0.0,0.0,0.3,0.0,0.0,2.2,1.02,1.15,0.523,6.0,2.6833,True,orthorhombic,mm2,36,13.1616,8.4215,0.763
Hg2 Pd2,2,0.0,0.0,0.0,0.0,0.0,0.0,0.0,0.0,0.0,1.0,1.5,0.2,0.1,0.1,0.05,1.0,0.5,True,tetragonal,4/mmm,123,18.1892,14.0139,0.878
Ba2 Ca1 Cu2 Hg1 O6,5,0.0,0.0,0.25,0.5,0.0,0.0,0.0,0.0,0.0,0.25,-0.0833,2.55,1.0667,1.55,0.6082,4.0,1.6583,True,tetragonal,4/mmm,123,16.5928,6.1581,0.299
Cd2 I4,2,0.0,0.0,0.0,0.0,0.6667,0.0,0.0,0.0,0.0,0.3333,0.0,0.97,0.4573,0.15,0.0707,0.0,0.0,True,hexagonal,6mm,186,40.6858,4.9823,0.289
B4 Ca2 H20 O18,4,0.0,0.0,0.0455,0.4091,0.0,0.0,0.0909,0.0,0.0,0.0,-0.9091,2.44,0.7105,1.55,0.3466,3.0,0.71,True,triclinic,-1,2,8.0842,2.0146,0.8028
P8 Ru8 Th4,3,0.2,0.0,0.0,0.0,0.0,0.0,0.0,0.0,0.2,0.4,0.8,0.9,0.358,0.8,0.2926,6.0,2.1909,True,orthorhombic,mmm,62,16.6295,9.9081,0.3956
C7 Si7,2,0.0,0.0,0.0,0.0,0.0,0.0,0.5,0.0,0.0,0.0,-4.0,0.65,0.325,0.4,0.2,1.0,0.5,True,trigonal,3m,160,10.4972,3.1714,1.0
Ge6 Mn6 Tm1,3,0.0,0.0,0.0,0.0,0.0,0.0769,0.4615,0.0,0.0769,0.4615,-0.6923,0.76,0.2623,0.5,0.1342,4.0,1.0659,True,hexagonal,6/mmm,191,14.4617,8.2532,0.6355
Ir2 Mo6,2,0.0,0.0,0.0,0.0,0.0,0.0,0.0,0.0,0.0,1.0,3.75,0.04,0.0173,0.1,0.0433,1.0,0.433,True,cubic,m-3m,223,15.6511,12.7327,1.0
Br6 Cl2 Hg12 S8,4,0.0,0.0,0.0,0.0,0.2857,0.0,0.0,0.0,0.0,0.4286,-0.4286,1.16,0.4282,0.5,0.2264,3.0,1.3496,True,monoclinic,2/m,12,29.8245,6.3908,0.8933
Se2 Ta1,2,0.0,0.0,0.0,0.6667,0.0,0.0,0.0,0.0,0.0,0.3333,0.3333,1.05,0.495,0.3,0.1414,2.0,0.9428,True,orthorhombic,mm2,42,42.6364,4.3992,0.2812
Co12 Li12 O48 P12,4,0.0,0.1429,0.0,0.5714,0.0,0.0,0.0,0.0,0.0,0.1429,-1.1429,2.46,0.932,0.85,0.3533,2.0,0.7284,True,monoclinic,2/m,14,12.4726,3.0592,0.5796
H8 O8 Sr4,3,0.0,0.0,0.2,0.4,0.0,0.0,0.0,0.0,0.0,0.0,-0.8,2.49,0.9311,1.75,0.6492,4.0,1.4697,True,orthorhombic,mmm,62,12.0676,3.3475,0.3949