formula,numberOfSpecies,fracActinoid,fracAlkali,fracAlkaline,fracChalcogen,fracHalogen,fracLanthanoid,fracMetalloid,fracNobleGas,fracRareEarth,fracTransitionMetal,electronsPerAtom,electronegativityRange,electronegativityStd,radiiRange,radiiStd,rowRange,rowStd,ordered,crystalSystem,pointGroup,spaceGroupNumber,volumePerSite,density,c_a
Be24 N16,2,0.0,0.0,0.6,0.0,0.0,0.0,0.0,0.0,0.0,0.0,-0.0,1.47,0.7201,0.4,0.196,0.0,0.0,True,cubic,m-3,206,6.7646,2.7027,1.0
Dy4 Ge4 Rh4,3,0.0,0.0,0.0,0.0,0.0,0.3333,0.3333,0.0,0.3333,0.3333,0.6667,1.06,0.4498,0.5,0.216,4.0,1.6997,True,orthorhombic,mmm,62,19.0013,9.8474,0.5725
Fe4 O28 P8 Sr4,4,0.0,0.0,0.0909,0.6364,0.0,0.0,0.0,0.0,0.0,0.0909,-1.4545,2.49,0.8505,1.4,0.4371,3.0,0.9791,True,monoclinic,2/m,14,13.364,3.5854,0.42
Hf1,1,0.0,0.0,0.0,0.0,0.0,0.0,0.0,0.0,0.0,1.0,4.0,0.0,0.0,0.0,0.0,0.0,0.0,True,cubic,m-3m,229,22.2115,13.3439,1.0
Mg12 Nd1,2,0.0,0.0,0.9231,0.0,0.0,0.0769,0.0,0.0,0.0769,0.0,2.0769,0.17,0.0453,0.35,0.0933,5.0,1.3323,True,tetragonal,4/mmm,139,24.1194,2.3085,0.7427
As12 K20 O40,3,0.0,0.2778,0.0,0.5556,0.0,0.0,0.1667,0.0,0.0,0.0,-1.3333,2.62,1.1366,1.6,0.6886,2.0,0.9938,True,orthorhombic,222,19,18.0882,2.9593,0.4139
Mn2 O24 P8,3,0.0,0.0,0.0,0.7059,0.0,0.0,0.0,0.0,0.0,0.0588,-2.0,1.89,0.643,0.8,0.2353,2.0,0.5882,True,triclinic,-1,2,13.1012,2.7648,0.7257
Ca2 Mo2 O8,3,0.0,0.0,0.1667,0.6667,0.0,0.0,0.0,0.0,0.0,0.1667,-0.3333,2.44,0.9386,1.2,0.4936,3.0,1.2134,True,triclinic,-1,2,13.6167,4.0653,0.7686
Fe17 Sm2,2,0.0,0.0,0.0,0.0,0.0,0.1053,0.0,0.0,0.1053,0.8947,2.1053,0.66,0.2025,0.45,0.1381,4.0,1.2276,True,trigonal,-3m,166,13.8063,7.9133,1.0
Ba6 Na2 O12 Ta2,4,0.0,0.0909,0.2727,0.5455,0.0,0.0,0.0,0.0,0.0,0.0909,0.0,2.55,1.2158,1.55,0.6934,4.0,1.8763,True,trigonal,-3m,167,17.1959,6.2497,1.0
B3 Ce3 O15 Si3,4,0.0,0.0,0.0,0.625,0.0,0.125,0.25,0.0,0.125,0.0,-1.0,2.32,0.8843,1.25,0.4146,6.0,1.9645,True,trigonal,3,144,11.5818,4.6419,1.0222
Fe3 Sn1,2,0.0,0.0,0.0,0.0,0.0,0.0,0.0,0.0,0.0,0.75,0.5,0.13,0.0563,0.05,0.0217,1.0,0.433,True,cubic,m-3m,221,13.9196,8.5369,1.0
Co1 F6 H12 O6 Si1,5,0.0,0.0,0.0,0.2308,0.2308,0.0,0.0385,0.0,0.0,0.0385,-1.2308,2.1,0.8002,1.1,0.2673,3.0,0.7308,True,trigonal,-3,148,9.8726,1.9996,1.0
Eu4 Ge4 Pt4,3,0.0,0.0,0.0,0.0,0.0,0.3333,0.3333,0.0,0.3333,0.3333,0.0,2.28,1.0172,0.6,0.2625,4.0,1.633,True,cubic,23,198,23.8414,9.7437,1.0
Pt1 Sb1 Tm1,3,0.0,0.0,0.0,0.0,0.0,0.3333,0.3333,0.0,0.3333,0.3333,0.6667,1.03,0.4414,0.4,0.17,3.0,1.2472,True,cubic,-43m,216,23.5565,11.4145,1.0
Se1 Tl1,2,0.0,0.0,0.0,0.5,0.0,0.0,0.0,0.0,0.0,0.0,-0.5,0.93,0.465,0.75,0.375,2.0,1.0,True,cubic,m-3m,221,26.4232,8.9032,1.0
Re8 Si4 Y2,3,0.0,0.0,0.0,0.0,0.0,0.0,0.2857,0.0,0.0,0.7143,1.5714,0.68,0.238,0.7,0.2162,3.0,1.3093,True,tetragonal,4/mmm,136,16.274,12.9718,0.5593
In3 La3 Pt3,3,0.0,0.0,0.0,0.0,0.0,0.3333,0.0,0.0,0.3333,0.6667,2.6667,1.18,0.4836,0.6,0.2494,3.0,1.2472,True,hexagonal,-6m2,189,24.3826,10.1884,1.8566
Hf8 Ru12 Si16,3,0.0,0.0,0.0,0.0,0.0,0.0,0.4444,0.0,0.0,0.5556,0.1111,0.9,0.33,0.45,0.1748,3.0,1.2472,True,monoclinic,2/m,15,14.9014,9.5653,0.4882
S4 Ta2,2,0.0,0.0,0.0,0.0,0.0,0.0,0.0,0.0,0.0,0.3333,0.3333,1.08,0.5091,0.45,0.2121,3.0,1.4142,True,hexagonal,6/mmm,194,22.1845,6.1148,0.2429
Dy2 Rh4,2,0.0,0.0,0.0,0.0,0.0,0.3333,0.0,0.0,0.3333,0.6667,3.0,1.06,0.4997,0.4,0.1886,3.0,1.4142,True,cubic,m-3m,227,17.9918,11.331,1.0
Pt2 Sb2,2,0.0,0.0,0.0,0.0,0.0,0.0,0.5,0.0,0.0,0.5,-0.5,0.23,0.115,0.1,0.05,1.0,0.5,True,hexagonal,6/mmm,194,21.4297,12.2758,0.7529
Cl8 H32 Ni4 O16,4,0.0,0.0,0.0,0.2667,0.1333,0.0,0.0,0.0,0.0,0.0667,-1.0667,1.53,0.5878,1.1,0.3424,3.0,0.9286,True,monoclinic,2/m,14,10.1389,2.2019,0.5446
Co6 Li6 O32 P8,4,0.0,0.1154,0.0,0.6154,0.0,0.0,0.0,0.0,0.0,0.1154,-1.3462,2.46,0.8882,0.85,0.3351,2.0,0.6837,True,monoclinic,2,4,12.0852,3.052,0.771
Dy8 O4 S8,3,0.0,0.0,0.0,0.2,0.0,0.4,0.0,0.0,0.4,0.0,0.0,2.22,0.8657,1.15,0.4567,6.0,2.6382,True,orthorhombic,mmm,62,20.1133,6.6894,0.2438
Mn3 O18 Sb6,3,0.0,0.0,0.0,0.6667,0.0,0.0,0.2222,0.0,0.0,0.1111,-1.7778,1.89,0.7463,0.85,0.3931,3.0,1.2862,True,trigonal,32,150,12.3413,5.8972,1.862
Cd4 O12 Ti4,3,0.0,0.0,0.0,0.6,0.0,0.0,0.0,0.0,0.0,0.4,0.0,1.9,0.8953,0.95,0.4313,3.0,1.2649,True,orthorhombic,mmm,62,11.3693,6.0839,0.6957
La1 Mn2 O6 Sr1,4,0.0,0.0,0.1,0.6,0.0,0.1,0.0,0.0,0.1,0.3,-0.3,2.49,1.068,1.4,0.563,6.0,1.9,True,monoclinic,m,8,11.9895,5.9887,0.986
Dy4 Ni6 Si10,3,0.0,0.0,0.0,0.0,0.0,0.2,0.5,0.0,0.2,0.3,-0.8,0.69,0.2735,0.65,0.2474,5.0,1.9,True,orthorhombic,mmm,72,15.0435,7.0811,0.718
Ca4 Li4 Sb4,3,0.0,0.3333,0.3333,0.0,0.0,0.0,0.3333,0.0,0.0,0.0,-0.0,1.07,0.4998,0.35,0.165,3.0,1.2472,True,orthorhombic,mmm,62,24.8352,3.7616,0.556
Ni24 P12 Sm6,3,0.0,0.0,0.0,0.0,0.0,0.1429,0.0,0.0,0.1429,0.5714,0.7143,1.02,0.3162,0.85,0.2644,5.0,1.5779,True,orthorhombic,mmm,58,13.41,7.9088,0.2648
Li4 Ni4 O28 P8,4,0.0,0.0909,0.0,0.6364,0.0,0.0,0.0,0.0,0.0,0.0909,-1.5455,2.46,0.836,0.85,0.3135,2.0,0.6428,True,monoclinic,2/m,14,11.1028,3.2574,0.7236
Cl2 Rh2 Te2,3,0.0,0.0,0.0,0.3333,0.3333,0.0,0.3333,0.0,0.0,0.3333,0.0,1.06,0.4631,0.4,0.178,2.0,0.9428,True,monoclinic,2/m,12,25.2498,5.8302,0.5272
I4 Np4 O20,3,0.1429,0.0,0.0,0.7143,0.1429,0.0,0.0,0.0,0.1429,0.0,-0.8571,2.08,0.7335,1.15,0.4503,7.0,2.499,True,orthorhombic,mm2,33,17.0756,6.1668,0.4036
As2 Ba1 Co2 O8,4,0.0,0.0,0.0769,0.6154,0.0,0.0,0.1538,0.0,0.0,0.1538,-1.2308,2.55,0.8497,1.55,0.4647,4.0,1.2686,True,trigonal,-3,148,13.8176,4.9275,1.0
F2 Hg2,2,0.0,0.0,0.0,0.0,0.5,0.0,0.0,0.0,0.0,0.5,0.0,1.98,0.99,1.0,0.5,4.0,2.0,True,tetragonal,4/mmm,139,20.3248,8.9702,0.6254
C1 Ru3 Sc1,3,0.0,0.0,0.0,0.0,0.0,0.0,0.0,0.0,0.0,0.8,1.6,1.19,0.395,0.9,0.2939,3.0,1.1662,True,cubic,m-3m,221,13.6575,8.7584,1.0
Ca2 K2 O18 P6,4,0.0,0.0714,0.0714,0.6429,0.0,0.0,0.0,0.0,0.0,0.0,-1.7143,2.62,0.9243,1.6,0.4882,2.0,0.7319,True,hexagonal,-6m2,188,15.5561,2.4101,0.6594
Ce1 Fe4 P12,3,0.0,0.0,0.0,0.0,0.0,0.0588,0.0,0.0,0.0588,0.2353,-1.4706,1.07,0.2758,0.85,0.2437,5.0,1.194,True,cubic,m-3,204,13.885,5.1719,1.0
F18 Pr6,2,0.0,0.0,0.0,0.0,0.75,0.25,0.0,0.0,0.25,0.0,0.0,2.85,1.2341,1.35,0.5846,6.0,2.5981,True,hexagonal,6/mmm,193,13.181,6.233,1.0029
P12 Sb8 Se36,3,0.0,0.0,0.0,0.6429,0.0,0.0,0.1429,0.0,0.0,0.0,-2.3571,0.5,0.2035,0.45,0.1325,2.0,0.5933,True,monoclinic,2/m,14,28.7801,4.3153,0.3518
Ru4 Sm1 Sn6,3,0.0,0.0,0.0,0.0,0.0,0.0909,0.0,0.0,0.0909,0.3636,-0.8182,1.03,0.2783,0.55,0.1497,3.0,0.8624,True,tetragonal,-42m,121,21.6714,8.8249,0.9966
B2 Nd1 Rh3,3,0.0,0.0,0.0,0.0,0.0,0.1667,0.3333,0.0,0.1667,0.5,3.0,1.14,0.4036,1.0,0.3436,6.0,2.0616,True,hexagonal,6/mmm,191,13.7258,9.5691,1.7649
Al2 O4 Tl2,3,0.0,0.0,0.0,0.5,0.0,0.0,0.0,0.0,0.0,0.0,0.0,1.83,0.9125,1.3,0.539,4.0,1.6394,True,trigonal,-3m,166,16.5123,6.6212,1.0
Au4 Ca12,2,0.0,0.0,0.75,0.0,0.0,0.0,0.0,0.0,0.0,0.25,2.25,1.54,0.6668,0.45,0.1949,2.0,0.866,True,orthorhombic,mmm,62,33.2178,3.9642,0.6874
La4 O12 Ru4,3,0.0,0.0,0.0,0.6,0.0,0.2,0.0,0.0,0.2,0.4,0.0,2.34,0.9434,1.35,0.5426,6.0,2.4,True,orthorhombic,mmm,62,12.8312,7.4536,0.6911
In8 Na40 O32,3,0.0,0.5,0.0,0.4,0.0,0.0,0.0,0.0,0.0,0.0,0.0,2.51,1.1859,1.2,0.572,3.0,0.8718,True,orthorhombic,mmm,61,15.7764,3.092,0.9817
Cs2,1,0.0,1.0,0.0,0.0,0.0,0.0,0.0,0.0,0.0,0.0,1.0,0.0,0.0,0.0,0.0,0.0,0.0,True,hexagonal,6/mmm,194,117.0234,1.8859,0.6198
Ca4 Mn4 O12,3,0.0,0.0,0.2,0.6,0.0,0.0,0.0,0.0,0.0,0.2,-0.4,2.44,1.0748,1.2,0.506,2.0,0.9798,True,orthorhombic,mmm,62,10.9235,4.3481,0.7047
Hg1 S1,2,0.0,0.0,0.0,0.0,0.0,0.0,0.0,0.0,0.0,0.5,-0.5,0.58,0.29,0.5,0.25,3.0,1.5,True,cubic,-43m,216,27.0995,7.128,1.0
Dy1 Rh1,2,0.0,0.0,0.0,0.0,0.0,0.5,0.0,0.0,0.5,0.5,3.0,1.06,0.53,0.4,0.2,3.0,1.5,True,cubic,m-3m,221,20.1807,10.9192,1.0
Cu3 Nd1 O12 Ru4,4,0.0,0.0,0.0,0.6,0.0,0.05,0.0,0.0,0.05,0.35,-0.15,2.3,0.7582,1.25,0.4016,6.0,1.6613,True,cubic,m-3,204,10.6885,7.2331,1.0
B16 Dy4,2,0.0,0.0,0.0,0.0,0.0,0.2,0.8,0.0,0.2,0.0,3.0,0.82,0.328,0.9,0.36,6.0,2.4,True,tetragonal,4/mmm,127,10.1359,6.7413,0.566
O1 Sn1 Yb3,3,0.0,0.0,0.0,0.2,0.0,0.6,0.0,0.0,0.6,0.0,0.6,3.44,1.4031,1.15,0.4454,6.0,2.4,True,cubic,m-3m,221,21.6855,10.0132,1.0
Cs4 K8,2,0.0,1.0,0.0,0.0,0.0,0.0,0.0,0.0,0.0,0.0,1.0,0.03,0.0141,0.4,0.1886,2.0,0.9428,True,hexagonal,6/mmm,194,88.0828,1.3266,0.6106
Cl2 H12 Ni1 O6,4,0.0,0.0,0.0,0.2857,0.0952,0.0,0.0,0.0,0.0,0.0476,-1.1429,1.53,0.587,1.1,0.31,3.0,0.8438,True,monoclinic,2/m,12,9.7676,1.9242,0.9383
F8 Pb4,2,0.0,0.0,0.0,0.0,0.6667,0.0,0.0,0.0,0.0,0.0,0.0,1.65,0.7778,1.3,0.6128,4.0,1.8856,True,orthorhombic,mmm,62,16.8597,8.05,0.5054
Ca12 Mn8 O48 Si12,4,0.0,0.0,0.15,0.6,0.0,0.0,0.15,0.0,0.0,0.1,-1.3,2.44,0.9941,1.2,0.4531,2.0,0.8529,True,cubic,m-3m,230,11.4447,3.6735,1.0
Ag4 Na2,2,0.0,0.3333,0.0,0.0,0.0,0.0,0.0,0.0,0.0,0.6667,1.0,1.0,0.4714,0.2,0.0943,2.0,0.9428,True,cubic,m-3m,227,21.7448,6.0768,1.0
Mg18 Pd6,2,0.0,0.0,0.75,0.0,0.0,0.0,0.0,0.0,0.0,0.25,2.0,0.89,0.3854,0.1,0.0433,2.0,0.866,True,hexagonal,6mm,185,19.6291,3.7927,0.9562
S6 Sn4 Tl4,3,0.0,0.0,0.0,0.0,0.0,0.0,0.0,0.0,0.0,0.0,-1.7143,0.96,0.4115,0.9,0.3748,3.0,1.2936,True,monoclinic,2/m,15,29.6053,5.9485,0.8636
Ca4 H4 O16 P4,4,0.0,0.0,0.1429,0.5714,0.0,0.0,0.0,0.0,0.0,0.0,-1.4286,2.44,0.893,1.55,0.4628,3.0,0.8806,True,triclinic,1,1,11.4465,2.8197,0.9469
Ni1 O6 Os1 Sr2,4,0.0,0.0,0.2,0.6,0.0,0.0,0.0,0.0,0.0,0.2,-0.2,2.49,1.0135,1.4,0.5627,4.0,1.5362,True,tetragonal,4/m,87,12.5576,6.8783,0.9878
C4 Cd2 N4,3,0.0,0.0,0.0,0.0,0.0,0.0,0.0,0.0,0.0,0.2,-2.4,1.35,0.4933,0.9,0.3507,3.0,1.2,True,cubic,-43m,215,26.9916,2.0234,1.0
Cd4 Cl12 Tl4,3,0.0,0.0,0.0,0.0,0.6,0.0,0.0,0.0,0.0,0.2,0.0,1.54,0.7376,0.9,0.372,3.0,1.2649,True,orthorhombic,mmm,62,28.1688,4.9889,0.2667
Ce16 O64 Zr16,3,0.0,0.0,0.0,0.6667,0.0,0.1667,0.0,0.0,0.1667,0.1667,-0.1667,2.32,1.0459,1.25,0.5257,6.0,2.2913,True,cubic,23,198,12.5406,6.5178,1.0
O18 S2 Zr6,3,0.0,0.0,0.0,0.6923,0.0,0.0,0.0,0.0,0.0,0.2308,-0.6154,2.11,0.8823,0.95,0.3976,3.0,1.2499,True,trigonal,-3,147,13.6906,4.196,0.6497
O8 Pb3 V2,3,0.0,0.0,0.0,0.6154,0.0,0.0,0.0,0.0,0.0,0.1538,0.0,1.81,0.7089,1.2,0.5147,4.0,1.6712,True,trigonal,-3m,166,15.2151,7.1483,1.0
B6 Ru4,2,0.0,0.0,0.0,0.0,0.0,0.0,0.6,0.0,0.0,0.4,3.0,0.16,0.0784,0.45,0.2205,3.0,1.4697,True,hexagonal,6/mmm,194,9.514,8.1883,0.2279
As2 Ba2 Mn1 O2 Zn2,5,0.0,0.0,0.2222,0.2222,0.0,0.0,0.2222,0.0,0.0,0.3333,0.0,2.55,0.8896,1.55,0.525,4.0,1.3333,True,tetragonal,4/mmm,139,20.1984,5.8667,0.415
Ge6 N8,2,0.0,0.0,0.0,0.0,0.0,0.0,0.4286,0.0,0.0,0.0,-3.4286,1.03,0.5097,0.6,0.2969,2.0,0.9897,True,cubic,m-3m,227,10.2535,6.3379,1.0
P16 Zn8,2,0.0,0.0,0.0,0.0,0.0,0.0,0.0,0.0,0.0,0.3333,-1.3333,0.54,0.2546,0.35,0.165,1.0,0.4714,True,tetragonal,422,92,20.1994,3.4899,0.2739
C1 N1 Na1,3,0.0,0.3333,0.0,0.0,0.0,0.0,0.0,0.0,0.0,0.0,-2.0,2.11,0.9016,1.15,0.5307,1.0,0.4714,True,monoclinic,2,5,15.1389,1.7918,1.2728
Li2 O40 P12 V6,4,0.0,0.0333,0.0,0.6667,0.0,0.0,0.0,0.0,0.0,0.1,-1.4,2.46,0.7607,0.85,0.2806,2.0,0.6633,True,orthorhombic,222,20,14.2318,2.5887,0.687
O14 Ru2 Sm6,3,0.0,0.0,0.0,0.6364,0.0,0.2727,0.0,0.0,0.2727,0.0909,-0.1818,2.27,1.0048,1.25,0.5541,6.0,2.6442,True,orthorhombic,mmm,63,13.7373,7.2982,0.869
S1 Sn1,2,0.0,0.0,0.0,0.0,0.0,0.0,0.0,0.0,0.0,0.0,-3.0,0.62,0.31,0.45,0.225,2.0,1.0,True,cubic,m-3m,225,25.0507,4.9972,1.0
Ir4 Se31 U12,3,0.2553,0.0,0.0,0.6596,0.0,0.0,0.0,0.0,0.2553,0.0851,0.4681,1.17,0.502,0.6,0.2576,5.0,2.1518,True,tetragonal,4/mmm,139,27.3366,7.8489,1.0
Ni2 Si2 U1,3,0.2,0.0,0.0,0.0,0.0,0.0,0.4,0.0,0.2,0.4,0.4,0.53,0.21,0.65,0.2379,6.0,2.245,True,tetragonal,4/mmm,139,14.6665,9.32,0.7209
Ag2 Fe1 S4 Sn1,4,0.0,0.0,0.0,0.0,0.0,0.0,0.0,0.0,0.0,0.375,-1.0,0.75,0.3356,0.6,0.2639,2.0,0.927,True,tetragonal,-42m,121,23.3009,4.6193,0.785
Ba2 Pb2,2,0.0,0.0,0.5,0.0,0.0,0.0,0.0,0.0,0.0,0.0,2.0,1.44,0.72,0.35,0.175,0.0,0.0,True,orthorhombic,mmm,63,42.7757,6.6872,0.6998
B36 Ho8 Ni60,3,0.0,0.0,0.0,0.0,0.0,0.0769,0.3462,0.0,0.0769,0.5769,2.4231,0.81,0.2034,0.9,0.2803,6.0,1.5708,True,orthorhombic,mmm,64,9.9212,8.4173,0.874
Ge2 Pr2,2,0.0,0.0,0.0,0.0,0.0,0.5,0.5,0.0,0.5,0.0,-0.5,0.88,0.44,0.6,0.3,4.0,2.0,True,orthorhombic,mmm,63,26.0416,6.8084,0.6785
Rb6 Te6,2,0.0,0.5,0.0,0.5,0.0,0.0,0.5,0.0,0.0,0.0,-0.5,1.28,0.64,0.95,0.475,0.0,0.0,True,hexagonal,-6m2,189,49.178,3.5972,1.5204
B20 Co58 Si8 Sm6,4,0.0,0.0,0.0,0.0,0.0,0.0652,0.3043,0.0,0.0652,0.6304,1.7609,0.87,0.1959,1.0,0.2579,6.0,1.3899,True,tetragonal,4/mmm,129,10.6082,8.1009,0.7025
C2 Cl2 F6,3,0.0,0.0,0.0,0.0,0.8,0.0,0.0,0.0,0.0,0.0,-1.6,1.43,0.5839,0.5,0.196,1.0,0.4,True,orthorhombic,mm2,36,18.0848,1.9183,0.7902
Ga4 Ge4 Yb4,3,0.0,0.0,0.0,0.0,0.0,0.3333,0.3333,0.0,0.3333,0.0,0.6667,2.01,0.9041,0.5,0.2248,4.0,1.8856,True,hexagonal,6/mmm,194,21.6103,8.0785,0.2554
B4 C4 Er2,3,0.0,0.0,0.0,0.0,0.0,0.2,0.4,0.0,0.2,0.0,0.2,1.31,0.4797,1.05,0.3957,6.0,2.4,True,tetragonal,4/mmm,127,10.0147,7.0603,0.6583
Ag3 Er3 Sn3,3,0.0,0.0,0.0,0.0,0.0,0.3333,0.0,0.0,0.3333,0.3333,0.0,0.72,0.3326,0.3,0.1225,3.0,1.4142,True,hexagonal,-6m2,189,23.5198,9.2685,1.6456
O12 Sb2 Sr4 Y2,4,0.0,0.0,0.2,0.6,0.0,0.0,0.1,0.0,0.0,0.1,-0.8,2.49,1.09,1.4,0.6108,3.0,1.4697,True,monoclinic,2/m,14,14.5032,5.5175,0.7041
Mg24 N16,2,0.0,0.0,0.6,0.0,0.0,0.0,0.0,0.0,0.0,0.0,-0.0,1.73,0.8475,0.85,0.4164,1.0,0.4899,True,cubic,m-3,206,12.592,2.6619,1.0
As4 Cu2 Tm2,3,0.0,0.0,0.0,0.0,0.0,0.25,0.5,0.0,0.25,0.25,-0.25,0.93,0.3799,0.6,0.2449,4.0,1.7321,True,tetragonal,4/mmm,129,18.3934,8.629,0.3958
F4 O40 Si12 Y12,4,0.0,0.0,0.0,0.5882,0.0588,0.0,0.1765,0.0,0.0,0.1765,-1.4118,2.76,0.952,1.3,0.4608,3.0,1.1254,True,monoclinic,2/m,14,12.8113,4.0407,0.6555
Pt4 U2,2,0.3333,0.0,0.0,0.0,0.0,0.0,0.0,0.0,0.3333,0.6667,3.3333,0.9,0.4243,0.4,0.1886,3.0,1.4142,True,orthorhombic,mmm,63,19.3057,18.011,0.7323
Li2 Pt1,2,0.0,0.6667,0.0,0.0,0.0,0.0,0.0,0.0,0.0,0.3333,1.3333,1.3,0.6128,0.1,0.0471,4.0,1.8856,True,hexagonal,6/mmm,191,13.6011,8.5041,1.5308
As8 U6,2,0.4286,0.0,0.0,0.0,0.0,0.0,0.5714,0.0,0.4286,0.0,0.8571,0.8,0.3959,0.6,0.2969,5.0,2.4744,True,cubic,-43m,220,21.918,10.9721,1.0
C1 Sm3 Sn1,3,0.0,0.0,0.0,0.0,0.0,0.6,0.0,0.0,0.6,0.0,0.2,1.38,0.5633,1.15,0.4477,6.0,2.4,True,cubic,m-3m,221,37.7569,5.1175,1.0
Au2 Np1 Si2,3,0.2,0.0,0.0,0.0,0.0,0.0,0.4,0.0,0.2,0.4,0.6,1.18,0.4475,0.65,0.2379,6.0,2.245,True,tetragonal,4/mmm,139,18.4808,12.3475,0.6982
As16 Se32 Tl16,3,0.0,0.0,0.0,0.5,0.0,0.0,0.25,0.0,0.0,0.0,-1.5,0.93,0.3806,0.75,0.3248,2.0,0.866,True,monoclinic,2/m,14,29.9609,6.0581,0.2627
F14 Rb6 Ti2,3,0.0,0.2727,0.0,0.0,0.6364,0.0,0.0,0.0,0.0,0.0909,0.0,3.16,1.4458,1.85,0.8144,3.0,1.3484,True,tetragonal,4/mmm,127,18.9021,3.4921,0.7288
Fe20 Li4 O32,3,0.0,0.0714,0.0,0.5714,0.0,0.0,0.0,0.0,0.0,0.3571,-0.3571,2.46,0.8913,0.85,0.4002,2.0,0.9583,True,cubic,432,212,10.92,4.4985,1.0
Eu4 In32 Rh8,3,0.0,0.0,0.0,0.0,0.0,0.0909,0.0,0.0,0.0909,0.1818,2.9091,2.28,0.5731,0.5,0.124,3.0,0.8624,True,orthorhombic,mmm,55,23.1996,8.3049,0.2697
Fe8 Li4 O48 P12,4,0.0,0.0556,0.0,0.6667,0.0,0.0,0.0,0.0,0.0,0.1111,-1.5556,2.46,0.7811,0.85,0.3111,2.0,0.6781,True,monoclinic,2/m,14,12.7457,2.9208,0.9786
C8 F2 H24 O10 Re2,5,0.0,0.0,0.0,0.2174,0.0435,0.0,0.0,0.0,0.0,0.0435,-1.5217,2.08,0.5843,1.1,0.2679,5.0,1.0471,True,triclinic,-1,2,10.6805,2.3344,0.499
Li1 P1 Sr1,3,0.0,0.3333,0.3333,0.0,0.0,0.0,0.0,0.0,0.0,0.0,0.0,1.24,0.5776,1.0,0.4089,3.0,1.2472,True,hexagonal,-6m2,187,22.6801,3.0637,1.0088
Fe8 Ge4 S16,3,0.0,0.0,0.0,0.0,0.0,0.0,0.1429,0.0,0.0,0.2857,-1.1429,0.75,0.346,0.4,0.1793,1.0,0.4949,True,orthorhombic,mmm,62,15.8408,4.6811,0.479
Cd2 Na4 Sn2,3,0.0,0.5,0.0,0.0,0.0,0.0,0.0,0.0,0.0,0.25,0.0,1.03,0.4576,0.35,0.1541,2.0,1.0,True,hexagonal,6/mmm,194,28.3811,4.0532,0.4997
Fe2 O5 Sr3,3,0.0,0.0,0.3,0.5,0.0,0.0,0.0,0.0,0.0,0.2,0.0,2.49,1.1116,1.4,0.6161,3.0,1.3454,True,monoclinic,2/m,12,15.1332,4.9877,0.3226
Cr4 O16 U4,3,0.1667,0.0,0.0,0.6667,0.0,0.0,0.0,0.0,0.1667,0.1667,0.1667,2.06,0.9087,1.15,0.4706,7.0,2.5658,True,orthorhombic,mmm,60,12.6422,7.7501,0.4085
Er1 Pt2 Si2,3,0.0,0.0,0.0,0.0,0.0,0.2,0.4,0.0,0.2,0.4,-0.2,1.04,0.3801,0.65,0.2379,5.0,1.9391,True,tetragonal,4/mmm,139,17.2188,11.8348,0.7301
F3 Mg1 Rb1,3,0.0,0.2,0.2,0.0,0.6,0.0,0.0,0.0,0.0,0.0,0.0,3.16,1.4364,1.85,0.7481,3.0,1.1662,True,cubic,m-3m,221,14.0709,3.9361,1.0
Au2 In1 Y1,3,0.0,0.0,0.0,0.0,0.0,0.0,0.0,0.0,0.0,0.75,3.0,1.32,0.5564,0.45,0.185,1.0,0.5,True,cubic,m-3m,225,21.6888,11.4395,1.0
Bi16 Rb16,2,0.0,0.5,0.0,0.0,0.0,0.0,0.0,0.0,0.0,0.0,2.0,1.2,0.6,0.75,0.375,1.0,0.5,True,monoclinic,2/m,14,47.3973,5.1579,0.5057
Rh6 Se16,2,0.0,0.0,0.0,0.7273,0.0,0.0,0.0,0.0,0.0,0.2727,-0.6364,0.27,0.1202,0.2,0.0891,1.0,0.4454,True,monoclinic,2/m,14,20.2245,7.0192,0.4978
Ba4 O20 Tm8 Zn4,4,0.0,0.0,0.1111,0.5556,0.0,0.2222,0.0,0.0,0.2222,0.1111,-0.0,2.55,1.098,1.55,0.6017,6.0,2.4944,True,orthorhombic,mmm,62,13.7681,8.3166,0.4635
Eu2 N14 Si8 Y2,4,0.0,0.0,0.0,0.0,0.0,0.0769,0.3077,0.0,0.0769,0.0769,-2.4615,3.04,0.9168,1.2,0.4158,6.0,1.6641,True,hexagonal,6mm,186,12.0575,4.7805,0.6117
Al8 La8 O30 Sr2 Ti2,5,0.0,0.0,0.04,0.6,0.0,0.16,0.0,0.0,0.16,0.2,0.0,2.49,1.046,1.4,0.5447,6.0,2.1674,True,orthorhombic,mmm,51,11.314,6.0999,0.7102
F3 Pd1 Rb1,3,0.0,0.2,0.0,0.0,0.6,0.0,0.0,0.0,0.0,0.2,0.0,3.16,1.2863,1.85,0.7376,3.0,1.4697,True,cubic,m-3m,221,16.4136,5.0358,1.0
O8 Si2 U2,3,0.1667,0.0,0.0,0.6667,0.0,0.0,0.1667,0.0,0.1667,0.0,-1.0,2.06,0.8617,1.15,0.4318,7.0,2.5604,True,tetragonal,4/mmm,141,12.9279,7.0669,1.0
B2 Cu2 S4,3,0.0,0.0,0.0,0.0,0.0,0.0,0.25,0.0,0.0,0.25,0.25,0.68,0.309,0.5,0.1837,2.0,0.7071,True,tetragonal,-42m,122,14.2244,4.0417,0.8714
Mn8 Sc4,2,0.0,0.0,0.0,0.0,0.0,0.0,0.0,0.0,0.0,1.0,2.3333,0.19,0.0896,0.2,0.0943,0.0,0.0,True,hexagonal,6/mmm,194,13.9196,6.1569,0.6083
Bi4 Mg8 O24 V4,4,0.0,0.0,0.2,0.6,0.0,0.0,0.0,0.0,0.0,0.1,0.0,2.13,0.9358,1.0,0.4384,4.0,1.249,True,orthorhombic,mmm,62,13.8283,4.8577,0.4422
As16 Ge8,2,0.0,0.0,0.0,0.0,0.0,0.0,1.0,0.0,0.0,0.0,-3.3333,0.17,0.0801,0.1,0.0471,0.0,0.0,True,orthorhombic,mmm,55,26.0303,4.7309,0.2429
As16 Ca16 Pd16,3,0.0,0.0,0.3333,0.0,0.0,0.0,0.3333,0.0,0.0,0.3333,0.3333,1.2,0.561,0.65,0.2677,1.0,0.4714,True,orthorhombic,mmm,62,22.1079,5.5437,0.4315
C4 O12 Rb2 Sm2,4,0.0,0.1,0.0,0.6,0.0,0.1,0.0,0.0,0.1,0.0,-1.6,2.62,0.9567,1.75,0.6017,6.0,1.9209,True,monoclinic,2/m,15,14.682,4.0246,0.8976
Be26 Th2,2,0.0714,0.0,0.9286,0.0,0.0,0.0,0.0,0.0,0.0714,0.0,2.1429,0.27,0.0695,0.75,0.1932,7.0,1.8028,True,cubic,m-3m,226,9.8682,4.1971,1.0
O8 P2 Ti2,3,0.0,0.0,0.0,0.6667,0.0,0.0,0.0,0.0,0.0,0.1667,-1.1667,1.9,0.7658,0.8,0.3055,2.0,0.7638,True,orthorhombic,mmm,63,11.6728,3.3866,0.7302
Bi8 La16 S36,3,0.0,0.0,0.0,0.0,0.0,0.2667,0.0,0.0,0.2667,0.2667,0.0,1.48,0.6369,0.95,0.4214,5.0,2.205,True,orthorhombic,mmm,62,25.049,5.5781,0.1415
Cu8 K3 Se6,3,0.0,0.1765,0.0,0.3529,0.0,0.0,0.0,0.0,0.0,0.4706,0.4118,1.73,0.5945,1.05,0.3678,0.0,0.0,True,monoclinic,2/m,12,20.6356,5.2041,0.3938
As4 Pt2 Rb4,3,0.0,0.4,0.0,0.0,0.0,0.0,0.4,0.0,0.0,0.2,-0.4,1.46,0.6836,1.2,0.56,2.0,0.7483,True,orthorhombic,mmm,63,32.2013,5.3203,0.7897
Na8 O8 Pb2,3,0.0,0.4444,0.0,0.4444,0.0,0.0,0.0,0.0,0.0,0.0,-0.2222,2.51,1.1841,1.2,0.5963,4.0,1.1967,True,triclinic,-1,2,16.2281,4.1289,0.6629
Ca2 O8 Pd6,3,0.0,0.0,0.125,0.5,0.0,0.0,0.0,0.0,0.0,0.375,0.0,2.44,0.8532,1.2,0.4664,3.0,1.4087,True,cubic,m-3m,223,12.4512,7.0572,1.0
O36 P12 V4,3,0.0,0.0,0.0,0.6923,0.0,0.0,0.0,0.0,0.0,0.0769,-1.6923,1.81,0.6555,0.75,0.2402,2.0,0.6249,True,orthorhombic,222,19,12.3265,2.9829,0.9859
Ba8 C8 F12 O24 Y4,5,0.0,0.0,0.1429,0.4286,0.2143,0.0,0.0,0.0,0.0,0.0714,-1.1429,3.09,1.0822,1.65,0.5997,4.0,1.5203,True,orthorhombic,mmm,60,14.4729,4.4302,0.595
Li4 O48 P12 V8,4,0.0,0.0556,0.0,0.6667,0.0,0.0,0.0,0.0,0.0,0.1111,-1.2222,2.46,0.8139,0.85,0.3007,2.0,0.6781,True,monoclinic,2/m,13,12.317,2.949,0.7043
Ca4 Li4 Si8,3,0.0,0.25,0.25,0.0,0.0,0.0,0.5,0.0,0.0,0.0,-1.25,0.92,0.4551,0.7,0.2902,2.0,0.7071,True,orthorhombic,mmm,62,20.1302,2.128,0.3573
Fe2 K4 P4 S12,4,0.0,0.1818,0.0,0.0,0.0,0.0,0.0,0.0,0.0,0.0909,-1.2727,1.76,0.6567,1.2,0.46,1.0,0.4454,True,monoclinic,2/m,14,25.8338,2.2695,0.4843
Br6 Ca2 In2,3,0.0,0.0,0.2,0.0,0.6,0.0,0.0,0.0,0.0,0.0,0.4,1.96,0.8077,0.65,0.2691,1.0,0.4,True,orthorhombic,mmm,63,33.6871,3.8903,0.3899
Mg8 Sr4,2,0.0,0.0,1.0,0.0,0.0,0.0,0.0,0.0,0.0,0.0,2.0,0.36,0.1697,0.5,0.2357,2.0,0.9428,True,hexagonal,6/mmm,194,31.3742,2.4034,0.6248