formula,numberOfSpecies,fracActinoid,fracAlkali,fracAlkaline,fracChalcogen,fracHalogen,fracLanthanoid,fracMetalloid,fracNobleGas,fracRareEarth,fracTransitionMetal,electronsPerAtom,electronegativityRange,electronegativityStd,radiiRange,radiiStd,rowRange,rowStd,ordered,crystalSystem,pointGroup,spaceGroupNumber,volumePerSite,density,c_a
Pr8 Sb6,2,0.0,0.0,0.0,0.0,0.0,0.5714,0.4286,0.0,0.5714,0.0,0.4286,0.92,0.4553,0.4,0.1979,3.0,1.4846,True,cubic,-43m,220,31.5116,6.9929,1.0
Co10 La2 P6,3,0.0,0.0,0.0,0.0,0.0,0.1111,0.0,0.0,0.1111,0.6667,0.4444,1.09,0.3152,0.95,0.2799,5.0,1.4487,True,orthorhombic,mmm,63,13.2308,7.342,0.3175
Ce1 Cu5,2,0.0,0.0,0.0,0.0,0.0,0.1667,0.0,0.0,0.1667,0.8333,2.1667,0.78,0.2907,0.5,0.1863,4.0,1.4907,True,hexagonal,6/mmm,191,15.2759,8.2949,1.2331
Co9 Ta3,2,0.0,0.0,0.0,0.0,0.0,0.0,0.0,0.0,0.0,1.0,2.75,0.38,0.1645,0.1,0.0433,2.0,0.866,True,trigonal,-3m,166,12.0263,12.349,1.0
Re1,1,0.0,0.0,0.0,0.0,0.0,0.0,0.0,0.0,0.0,1.0,4.0,0.0,0.0,0.0,0.0,0.0,0.0,True,cubic,m-3m,225,15.1162,20.4551,1.0
Cs4 Li4 O8 Ti2,4,0.0,0.4444,0.0,0.4444,0.0,0.0,0.0,0.0,0.0,0.1111,0.0,2.65,1.2219,2.0,0.7739,4.0,1.663,True,triclinic,-1,2,17.828,4.0523,0.6088
As2 O8 Tl6,3,0.0,0.0,0.0,0.5,0.0,0.0,0.125,0.0,0.0,0.0,-1.0,1.82,0.8573,1.3,0.6018,4.0,1.854,True,hexagonal,6,173,24.2372,6.4407,1.7007
Fe1 P4 Si4,3,0.0,0.0,0.0,0.0,0.0,0.0,0.4444,0.0,0.0,0.1111,-2.8889,0.36,0.1525,0.4,0.1197,1.0,0.3143,True,triclinic,1,1,16.0436,3.359,0.8035
Cu18 P6,2,0.0,0.0,0.0,0.0,0.0,0.0,0.0,0.0,0.0,0.75,0.75,0.29,0.1256,0.35,0.1516,1.0,0.433,True,trigonal,-3m,165,12.5742,7.3165,0.9705
H2 V1,2,0.0,0.0,0.0,0.0,0.0,0.0,0.0,0.0,0.0,0.3333,1.0,0.57,0.2687,1.1,0.5185,3.0,1.4142,True,cubic,m-3m,225,6.2399,4.6976,1.0
Ca6 O18 Te6,3,0.0,0.0,0.2,0.8,0.0,0.0,0.2,0.0,0.0,0.0,-1.2,2.44,0.9891,1.2,0.506,3.0,1.2649,True,monoclinic,2,4,18.0938,3.9587,0.4998
Ca1 H2 O2,3,0.0,0.0,0.2,0.4,0.0,0.0,0.0,0.0,0.0,0.0,-0.8,2.44,0.9152,1.55,0.5718,3.0,1.0954,True,trigonal,-3m,164,11.1965,2.1977,0.7336
Ni5 Zr1,2,0.0,0.0,0.0,0.0,0.0,0.0,0.0,0.0,0.0,1.0,2.3333,0.58,0.2162,0.2,0.0745,1.0,0.3727,True,cubic,-43m,216,12.497,8.5193,1.0
Fe8 O24 P6,3,0.0,0.0,0.0,0.6316,0.0,0.0,0.0,0.0,0.0,0.2105,-1.3158,1.61,0.7105,0.8,0.3261,2.0,0.8154,True,monoclinic,m,9,12.2534,3.6254,1.3496
B4 Hf1 Nb1,3,0.0,0.0,0.0,0.0,0.0,0.0,0.6667,0.0,0.0,0.3333,3.5,0.74,0.2913,0.7,0.3078,4.0,1.675,True,orthorhombic,mmm,71,9.6407,9.0325,0.677
Pd20 Te7,2,0.0,0.0,0.0,0.2593,0.0,0.0,0.2593,0.0,0.0,0.7407,0.963,0.1,0.0438,0.0,0.0,0.0,0.0,True,trigonal,-3,148,17.6032,10.5567,1.0
F28 K4 Sb8,3,0.0,0.1,0.0,0.0,0.7,0.0,0.2,0.0,0.0,0.0,-1.2,3.16,1.1184,1.7,0.583,3.0,1.249,True,monoclinic,2/m,14,17.9872,3.8368,0.6951
Os4 Pr1 Sb12,3,0.0,0.0,0.0,0.0,0.0,0.0588,0.7059,0.0,0.0588,0.2353,-1.0,1.07,0.2339,0.55,0.1207,3.0,0.7715,True,cubic,m-3,204,24.6055,9.3804,1.0
C1 K1 N1,3,0.0,0.3333,0.0,0.0,0.0,0.0,0.0,0.0,0.0,0.0,-2.0,2.22,0.9523,1.55,0.7192,2.0,0.9428,True,monoclinic,m,8,20.6389,1.7463,1.0006
Nb2 Pb2 S4,3,0.0,0.0,0.0,0.0,0.0,0.0,0.0,0.0,0.0,0.25,0.75,0.98,0.4015,0.8,0.3361,3.0,1.299,True,hexagonal,6/mmm,194,22.3821,6.7557,0.189
Nb4 Pd4 Te20,3,0.0,0.0,0.0,0.7143,0.0,0.0,0.7143,0.0,0.0,0.2857,-0.4286,0.6,0.1841,0.05,0.0175,0.0,0.0,True,orthorhombic,mmm,62,29.8074,6.6638,0.2394
Eu2 F8 Mg2,3,0.0,0.0,0.1667,0.0,0.6667,0.1667,0.0,0.0,0.1667,0.0,0.0,3.98,1.6124,1.35,0.563,6.0,2.1922,True,orthorhombic,mmm,63,14.2781,4.8897,0.5269
C1 N2 Sr1,3,0.0,0.0,0.25,0.0,0.0,0.0,0.0,0.0,0.0,0.0,-2.0,2.09,0.8579,1.35,0.5777,3.0,1.299,True,trigonal,-3m,166,17.596,3.0115,1.0
B1 La1 Rh3,3,0.0,0.0,0.0,0.0,0.0,0.2,0.2,0.0,0.2,0.8,3.0,1.18,0.4575,1.1,0.3487,6.0,1.8974,True,cubic,m-3m,221,15.7937,9.6399,1.0
F16 O4 U4,3,0.1667,0.0,0.0,0.1667,0.6667,0.0,0.0,0.0,0.1667,0.0,0.0,2.6,0.9494,1.25,0.4598,7.0,2.6087,True,tetragonal,-42m,122,17.1858,5.3146,0.6606
K12 O56 Sb20,3,0.0,0.1364,0.0,0.6364,0.0,0.0,0.2273,0.0,0.0,0.0,-1.8182,2.62,0.9602,1.6,0.5866,3.0,1.2961,True,orthorhombic,mmm,55,15.2271,4.7095,0.2947
O20 Sr8 U4,3,0.125,0.0,0.25,0.625,0.0,0.0,0.0,0.0,0.125,0.0,0.0,2.49,1.1428,1.4,0.6415,7.0,2.3947,True,monoclinic,2/m,14,16.6626,6.1447,0.4761
B2 Mg6 N6,3,0.0,0.0,0.4286,0.0,0.0,0.0,0.1429,0.0,0.0,0.0,0.0,1.73,0.8022,0.85,0.4013,1.0,0.4949,True,hexagonal,6/mmm,194,12.6995,2.3489,0.2206
Ge1 O8 Zr3,3,0.0,0.0,0.0,0.6667,0.0,0.0,0.0833,0.0,0.0,0.25,-0.6667,2.11,0.9302,0.95,0.4192,3.0,1.3202,True,monoclinic,m,8,11.406,5.7543,0.791
Pd1 Yb1,2,0.0,0.0,0.0,0.0,0.0,0.5,0.0,0.0,0.5,0.5,2.5,2.2,1.1,0.35,0.175,3.0,1.5,True,cubic,m-3m,221,20.5826,11.273,1.0
Ce4 Ir4 Si4,3,0.0,0.0,0.0,0.0,0.0,0.3333,0.3333,0.0,0.3333,0.3333,0.6667,1.08,0.4552,0.75,0.3118,5.0,2.0548,True,cubic,23,198,21.0106,9.495,1.0
Cu8 Na4 S6,3,0.0,0.2222,0.0,0.0,0.0,0.0,0.0,0.0,0.0,0.4444,0.4444,1.65,0.6026,0.8,0.2925,1.0,0.4969,True,monoclinic,2/m,12,16.6412,4.3945,0.3719
Bi4 O36 P12,3,0.0,0.0,0.0,0.6923,0.0,0.0,0.0,0.0,0.0,0.0,-1.8462,1.42,0.5979,1.0,0.2919,4.0,1.0824,True,monoclinic,2/m,14,13.6793,4.1637,0.5068
Na2 Rb2 S2,3,0.0,0.6667,0.0,0.0,0.0,0.0,0.0,0.0,0.0,0.0,0.0,1.76,0.805,1.35,0.5543,2.0,0.9428,True,tetragonal,4/mmm,129,28.6217,2.7176,0.6184
Fe8 N1,2,0.0,0.0,0.0,0.0,0.0,0.0,0.0,0.0,0.0,0.8889,1.4444,1.21,0.3803,0.75,0.2357,2.0,0.6285,True,tetragonal,4/mmm,139,11.2325,7.5685,1.0
C4 Fe12 W12,3,0.0,0.0,0.0,0.0,0.0,0.0,0.0,0.0,0.0,0.8571,2.0,0.72,0.2925,0.7,0.2373,4.0,1.3997,True,cubic,m-3m,227,12.1038,14.328,1.0
Al2 Cl6 H24 O12,4,0.0,0.0,0.0,0.2727,0.1364,0.0,0.0,0.0,0.0,0.0,-1.0909,1.83,0.6043,1.0,0.3105,2.0,0.7714,True,trigonal,-3m,167,11.1609,1.6328,1.0
B8 F24 H24 N8,4,0.0,0.0,0.0,0.0,0.375,0.0,0.125,0.0,0.0,0.0,-0.75,1.94,0.8446,0.6,0.2015,1.0,0.4841,True,orthorhombic,mmm,61,9.5468,1.8445,0.8498
Li4 O48 P16 Sb4,4,0.0,0.0556,0.0,0.6667,0.0,0.0,0.0556,0.0,0.0,0.0,-2.1111,2.46,0.741,0.85,0.2867,3.0,0.7556,True,monoclinic,2/m,14,14.4505,2.8383,0.4761
Cl6 U2,2,0.25,0.0,0.0,0.0,0.75,0.0,0.0,0.0,0.25,0.0,0.75,1.78,0.7708,0.75,0.3248,6.0,2.5981,True,hexagonal,6/m,176,26.034,5.4916,1.7666
Cu2 O5 S2 Sc2 Sr3,5,0.0,0.0,0.2143,0.3571,0.0,0.0,0.0,0.0,0.0,0.2857,0.1429,2.49,1.0069,1.4,0.5454,3.0,1.1715,True,tetragonal,4/mmm,139,15.676,4.7213,0.3058
Re8 Sc12 Si16,3,0.0,0.0,0.0,0.0,0.0,0.0,0.4444,0.0,0.0,0.5556,0.1111,0.54,0.2546,0.5,0.2187,3.0,1.1547,True,monoclinic,2/m,15,16.398,6.9718,0.4602
Er2 O7 Si2,3,0.0,0.0,0.0,0.6364,0.0,0.1818,0.1818,0.0,0.1818,0.0,-1.4545,2.2,0.9213,1.15,0.4426,6.0,2.26,True,monoclinic,2/m,12,13.0947,5.795,0.844
Nb4 Ni4 Te8,3,0.0,0.0,0.0,0.5,0.0,0.0,0.5,0.0,0.0,0.5,0.75,0.5,0.2044,0.1,0.0354,1.0,0.433,True,orthorhombic,mm2,28,23.661,7.1374,0.7859
Al2 Li2 Mo4 O16,4,0.0,0.0833,0.0,0.6667,0.0,0.0,0.0,0.0,0.0,0.1667,-0.3333,2.46,0.8547,0.85,0.3804,3.0,1.1149,True,triclinic,-1,2,13.1868,3.7127,0.9136
Ba4 O16 Tb8,3,0.0,0.0,0.1429,0.5714,0.0,0.2857,0.0,0.0,0.2857,0.0,0.0,3.44,1.5796,1.55,0.647,6.0,2.7105,True,orthorhombic,mmm,62,16.1834,7.6102,0.2856
Br12 K4 Te2,3,0.0,0.2222,0.0,0.1111,0.6667,0.0,0.1111,0.0,0.0,0.0,-0.6667,2.14,0.8796,1.05,0.4287,1.0,0.3143,True,tetragonal,4/mmm,128,36.5672,3.4574,0.694
F24 O4 Sn16,3,0.0,0.0,0.0,0.0909,0.5455,0.0,0.0,0.0,0.0,0.0,-2.1818,2.02,0.9467,0.95,0.451,3.0,1.4431,True,orthorhombic,222,19,21.1306,4.3209,0.3092
Al6 Hf10,2,0.0,0.0,0.0,0.0,0.0,0.0,0.0,0.0,0.0,0.625,3.625,0.31,0.1501,0.3,0.1452,3.0,1.4524,True,hexagonal,6/mmm,193,20.3386,9.9341,1.4212
Cs2 Fe4 O32 P10,4,0.0,0.0417,0.0,0.6667,0.0,0.0,0.0,0.0,0.0,0.0833,-1.75,2.65,0.761,2.0,0.446,4.0,0.9565,True,monoclinic,m,7,14.7355,3.0776,0.734
B4 Ni12,2,0.0,0.0,0.0,0.0,0.0,0.0,0.25,0.0,0.0,0.75,2.25,0.13,0.0563,0.5,0.2165,2.0,0.866,True,orthorhombic,mmm,62,9.3924,8.2604,0.6622
Cr2 O10 Pb4,3,0.0,0.0,0.0,0.625,0.0,0.0,0.0,0.0,0.0,0.125,-0.375,1.78,0.6739,1.2,0.5292,4.0,1.7139,True,triclinic,1,1,17.1374,6.6179,0.766
Fe2 Na6 O16 P4,4,0.0,0.2143,0.0,0.5714,0.0,0.0,0.0,0.0,0.0,0.0714,-1.2143,2.51,1.033,1.2,0.4891,2.0,0.6268,True,monoclinic,2/m,15,11.7597,3.1747,0.3615
K1 Nb1 O3,3,0.0,0.2,0.0,0.6,0.0,0.0,0.0,0.0,0.0,0.2,0.0,2.62,1.12,1.6,0.6453,3.0,1.2649,True,trigonal,3m,160,13.6837,4.3687,1.0
Pd1 Ti1,2,0.0,0.0,0.0,0.0,0.0,0.0,0.0,0.0,0.0,1.0,3.0,0.66,0.33,0.0,0.0,1.0,0.5,True,cubic,m-3m,221,16.0151,7.9987,1.0
Cl2 In2 O2,3,0.0,0.0,0.0,0.3333,0.3333,0.0,0.0,0.0,0.0,0.0,0.0,1.66,0.7256,0.95,0.3894,3.0,1.2472,True,orthorhombic,mmm,59,21.4796,4.2847,0.413
Ge2 Ti2 Y2,3,0.0,0.0,0.0,0.0,0.0,0.0,0.3333,0.0,0.0,0.6667,1.0,0.79,0.3244,0.55,0.2321,1.0,0.4714,True,tetragonal,4/mmm,129,21.1941,5.4691,0.5287
B2 C8 N8 Tl2,4,0.0,0.0,0.0,0.0,0.0,0.0,0.1,0.0,0.0,0.0,-2.4,1.42,0.4537,1.25,0.3661,4.0,1.2,True,tetragonal,4/m,88,19.5161,2.7165,0.8059
S12 Te4 Tl8,3,0.0,0.0,0.0,0.1667,0.0,0.0,0.1667,0.0,0.0,0.0,-1.0,0.96,0.4308,0.9,0.4028,3.0,1.3744,True,orthorhombic,mmm,62,30.7053,5.7015,0.4658
Se24 Sn8 Tl16,3,0.0,0.0,0.0,0.5,0.0,0.0,0.0,0.0,0.0,0.0,-1.3333,0.93,0.4238,0.75,0.3354,2.0,0.8975,True,orthorhombic,mmm,62,31.6812,6.6772,0.3824
B8 Ir8 La2,3,0.0,0.0,0.0,0.0,0.0,0.1111,0.4444,0.0,0.1111,0.5556,3.0,1.1,0.3293,1.1,0.3562,6.0,2.2662,True,tetragonal,4/m,86,13.3066,13.1864,0.5151
Ga6 Pd10,2,0.0,0.0,0.0,0.0,0.0,0.0,0.0,0.0,0.0,0.625,2.375,0.39,0.1888,0.1,0.0484,1.0,0.4841,True,orthorhombic,mmm,55,15.0917,10.1952,0.3802
Li4 Nb2 O16 P4,4,0.0,0.1538,0.0,0.6154,0.0,0.0,0.0,0.0,0.0,0.0769,-1.1538,2.46,0.9615,0.85,0.3535,3.0,0.8356,True,monoclinic,2/m,14,12.6125,3.0052,1.4934
Mn1 O1,2,0.0,0.0,0.0,0.5,0.0,0.0,0.0,0.0,0.0,0.5,0.0,1.89,0.945,0.8,0.4,2.0,1.0,True,cubic,m-3m,225,11.5054,5.1191,1.0
Fe8 Mn12 O48 Si12,4,0.0,0.0,0.0,0.6,0.0,0.0,0.15,0.0,0.0,0.25,-1.3,1.89,0.8333,0.8,0.3491,2.0,0.8529,True,cubic,m-3m,230,10.7079,4.286,1.0
Mn1 Se1,2,0.0,0.0,0.0,0.5,0.0,0.0,0.0,0.0,0.0,0.5,0.0,1.0,0.5,0.25,0.125,0.0,0.0,True,cubic,-43m,216,26.2882,4.2289,1.0
F3 Pb1 Rb1,3,0.0,0.2,0.0,0.0,0.6,0.0,0.0,0.0,0.0,0.0,0.0,3.16,1.2713,1.85,0.7909,4.0,1.7436,True,cubic,m-3m,221,22.9826,5.0528,1.0
B8 Ba12 N16,3,0.0,0.0,0.3333,0.0,0.0,0.0,0.2222,0.0,0.0,0.0,0.0,2.15,0.9389,1.5,0.6801,4.0,1.8856,True,orthorhombic,222,19,19.8713,4.5462,0.2881
Ag6 P2 S8,3,0.0,0.0,0.0,0.0,0.0,0.0,0.0,0.0,0.0,0.375,-1.0,0.65,0.3031,0.6,0.2905,2.0,0.9682,True,orthorhombic,mm2,31,22.197,4.5151,0.8528
Ge6 Ho2 Ni1,3,0.0,0.0,0.0,0.0,0.0,0.2222,0.6667,0.0,0.2222,0.1111,-1.7778,0.78,0.3198,0.5,0.2043,4.0,1.663,True,orthorhombic,mm2,38,19.2588,7.8979,0.3658
C6 Ce6 F6 O18,4,0.0,0.0,0.0,0.5,0.1667,0.1667,0.0,0.0,0.1667,0.0,-1.3333,2.86,0.9379,1.35,0.4694,6.0,2.2361,True,hexagonal,-6m2,190,12.1653,4.985,0.7262
Ba4 Ge8 O20,3,0.0,0.0,0.125,0.625,0.0,0.0,0.25,0.0,0.0,0.0,-2.0,2.55,0.931,1.55,0.5282,4.0,1.4142,True,orthorhombic,mmm,64,12.8477,5.8582,0.3844
Co4 Sc6 Si6,3,0.0,0.0,0.0,0.0,0.0,0.0,0.375,0.0,0.0,0.625,0.125,0.54,0.2577,0.5,0.2165,1.0,0.4841,True,orthorhombic,mmm,63,15.6708,4.4636,0.3065
U1,1,1.0,0.0,0.0,0.0,0.0,0.0,0.0,0.0,1.0,0.0,6.0,0.0,0.0,0.0,0.0,0.0,0.0,True,cubic,m-3m,229,20.2334,19.5348,1.0
B10 Na6 O20 Sr2,4,0.0,0.1579,0.0526,0.5263,0.0,0.0,0.2632,0.0,0.0,0.0,0.0,2.51,1.0171,1.4,0.4886,3.0,0.7293,True,triclinic,-1,2,12.2066,2.6537,0.7474
N4 Na8 O4 W2,4,0.0,0.4444,0.0,0.2222,0.0,0.0,0.0,0.0,0.0,0.1111,-0.2222,2.51,1.1005,1.2,0.5558,4.0,1.1967,True,triclinic,-1,2,15.7853,3.9251,0.653
Li8 P56,2,0.0,0.125,0.0,0.0,0.0,0.0,0.0,0.0,0.0,0.0,-2.5,1.21,0.4002,0.45,0.1488,1.0,0.3307,True,tetragonal,4/mmm,142,21.5267,2.1575,1.0
Ag2 Au2 Te4,3,0.0,0.0,0.0,0.5,0.0,0.0,0.5,0.0,0.0,0.5,0.0,0.61,0.226,0.25,0.096,1.0,0.433,True,monoclinic,2/m,10,26.7168,8.702,0.5566
Bi6 Nd8,2,0.0,0.0,0.0,0.0,0.0,0.5714,0.0,0.0,0.5714,0.0,3.0,0.88,0.4355,0.25,0.1237,2.0,0.9897,True,cubic,-43m,220,32.627,8.7532,1.0
O12 Sb8,2,0.0,0.0,0.0,0.6,0.0,0.0,0.4,0.0,0.0,0.0,-2.4,1.39,0.681,0.85,0.4164,3.0,1.4697,True,cubic,m-3m,227,18.9669,5.1044,1.0
Fe4 N1,2,0.0,0.0,0.0,0.0,0.0,0.0,0.0,0.0,0.0,0.8,1.0,1.21,0.484,0.75,0.3,2.0,0.8,True,cubic,m-3m,221,10.9378,7.2079,1.0
Nb6 Pb2 S12,3,0.0,0.0,0.0,0.0,0.0,0.0,0.0,0.0,0.0,0.3,0.5,0.98,0.4389,0.8,0.2802,3.0,1.1358,True,hexagonal,6/mmm,193,22.2834,5.0547,0.3909
Th1,1,1.0,0.0,0.0,0.0,0.0,0.0,0.0,0.0,1.0,0.0,4.0,0.0,0.0,0.0,0.0,0.0,0.0,True,tetragonal,4/mmm,139,32.0291,12.0299,0.9983
Fe2 U12,2,0.8571,0.0,0.0,0.0,0.0,0.0,0.0,0.0,0.8571,0.1429,5.4286,0.45,0.1575,0.35,0.1225,5.0,1.7496,True,tetragonal,4/mmm,140,19.2959,18.2442,0.6879
Na2 O8 Sm2 Ti2,4,0.0,0.1429,0.0,0.5714,0.0,0.1429,0.0,0.0,0.1429,0.1429,0.0,2.51,1.1141,1.25,0.5521,6.0,2.0504,True,tetragonal,4/mmm,129,13.0258,5.1942,0.2876
Rh2 Sb4 Ti10,3,0.0,0.0,0.0,0.0,0.0,0.0,0.25,0.0,0.0,0.75,2.125,0.74,0.2917,0.1,0.03,1.0,0.4841,True,tetragonal,4/mmm,140,18.0226,6.7462,0.6654
Sc1 Zn1,2,0.0,0.0,0.0,0.0,0.0,0.0,0.0,0.0,0.0,1.0,2.5,0.29,0.145,0.25,0.125,0.0,0.0,True,cubic,m-3m,221,18.9075,4.8464,1.0
As16 Cd8 Ge4,3,0.0,0.0,0.0,0.0,0.0,0.0,0.7143,0.0,0.0,0.2857,-1.7143,0.49,0.2139,0.4,0.175,1.0,0.4518,True,orthorhombic,mmm,62,25.7376,5.5038,0.5702
Mo30 Rb6 Se34,3,0.0,0.0857,0.0,0.4857,0.0,0.0,0.0,0.0,0.0,0.4286,0.8286,1.73,0.4714,1.2,0.3293,1.0,0.4998,True,hexagonal,6/m,176,24.7434,5.8248,0.4584
N1 Y1,2,0.0,0.0,0.0,0.0,0.0,0.0,0.0,0.0,0.0,0.5,0.0,1.82,0.91,1.15,0.575,3.0,1.5,True,cubic,m-3m,225,14.8788,5.7428,1.0
In2 Mg1 Te4,3,0.0,0.0,0.1429,0.5714,0.0,0.0,0.5714,0.0,0.0,0.0,0.0,0.79,0.2769,0.15,0.0678,2.0,0.6999,True,monoclinic,m,8,36.5168,4.9653,0.8137
Al1 Cl3,2,0.0,0.0,0.0,0.0,0.75,0.0,0.0,0.0,0.0,0.0,0.0,1.55,0.6712,0.25,0.1083,0.0,0.0,True,trigonal,-3m,164,20.5656,2.6916,0.5181
In3 La3 Pd3,3,0.0,0.0,0.0,0.0,0.0,0.3333,0.0,0.0,0.3333,0.6667,2.6667,1.1,0.4532,0.55,0.2321,3.0,1.4142,True,hexagonal,-6m2,189,25.8777,7.7033,2.0198
Ge20 Ho10 Ir8,3,0.0,0.0,0.0,0.0,0.0,0.2632,0.5263,0.0,0.2632,0.2105,-0.6842,0.97,0.3747,0.5,0.2112,4.0,1.6973,True,tetragonal,4/mmm,127,21.9834,9.223,0.3149
Al6 Y2,2,0.0,0.0,0.0,0.0,0.0,0.0,0.0,0.0,0.0,0.25,3.0,0.39,0.1689,0.55,0.2382,2.0,0.866,True,hexagonal,6/mmm,194,29.5295,2.3878,1.8601
K8 Se16 Sn6,3,0.0,0.2667,0.0,0.5333,0.0,0.0,0.0,0.0,0.0,0.0,-1.6,1.73,0.7295,1.05,0.4432,1.0,0.4,True,orthorhombic,mmm,68,33.5278,3.7779,0.5713
Rb4 Se6,2,0.0,0.4,0.0,0.6,0.0,0.0,0.0,0.0,0.0,0.0,-0.8,1.73,0.8475,1.2,0.5879,1.0,0.4899,True,orthorhombic,mm2,36,35.8541,3.7775,0.8484
Cd1 Cu4 Yb1,3,0.0,0.0,0.0,0.0,0.0,0.1667,0.0,0.0,0.1667,0.8333,2.1667,1.9,0.6967,0.4,0.1528,4.0,1.4625,True,cubic,-43m,216,15.2776,9.7756,1.0
Na4 Pd2 S4,3,0.0,0.4,0.0,0.0,0.0,0.0,0.0,0.0,0.0,0.2,0.0,1.65,0.7591,0.8,0.3578,2.0,0.8,True,orthorhombic,mm2,36,20.5889,3.4927,0.3269
Al1 Li2 Pd1,3,0.0,0.5,0.0,0.0,0.0,0.0,0.0,0.0,0.0,0.25,1.75,1.22,0.5074,0.2,0.082,3.0,1.2247,True,cubic,-43m,216,14.2387,4.2941,1.0
C6 Ni60 Tm11,3,0.0,0.0,0.0,0.0,0.0,0.1429,0.0,0.0,0.1429,0.7792,1.6753,1.3,0.3036,1.05,0.2361,6.0,1.5571,True,cubic,m-3m,229,12.358,9.514,1.0
Ce4 O12 Sb4,3,0.0,0.0,0.0,0.6,0.0,0.2,0.2,0.0,0.2,0.0,-1.2,2.32,0.9552,1.25,0.5297,6.0,2.4,True,cubic,m-3m,227,16.5827,6.206,1.0
Ni2 Te2,2,0.0,0.0,0.0,0.5,0.0,0.0,0.5,0.0,0.0,0.5,0.0,0.19,0.095,0.05,0.025,1.0,0.5,True,trigonal,-3m,166,21.5692,7.1711,1.0
Mn2 Nb8 S16,3,0.0,0.0,0.0,0.0,0.0,0.0,0.0,0.0,0.0,0.3846,0.4615,1.03,0.4818,0.45,0.2144,2.0,0.9102,True,hexagonal,6/mmm,194,18.6009,4.6908,0.5444
Ba1 O3 Zr1,3,0.0,0.0,0.2,0.6,0.0,0.0,0.0,0.0,0.0,0.2,0.0,2.55,1.1499,1.55,0.6411,4.0,1.7436,True,cubic,m-3m,221,15.4149,5.9582,1.0
O28 Re2 Y14,3,0.0,0.0,0.0,0.6364,0.0,0.0,0.0,0.0,0.0,0.3636,-0.1364,2.22,1.0359,1.2,0.5575,4.0,1.5164,True,orthorhombic,mmm,58,14.02,5.5588,0.5786
O25 P6 Si5,3,0.0,0.0,0.0,0.6944,0.0,0.0,0.1389,0.0,0.0,0.0,-2.4444,1.54,0.6415,0.5,0.207,1.0,0.4606,True,trigonal,-3,148,12.4231,2.6965,1.0
Fe6 O32 P8,3,0.0,0.0,0.0,0.6957,0.0,0.0,0.0,0.0,0.0,0.1304,-1.6522,1.61,0.6536,0.8,0.2847,2.0,0.7118,True,monoclinic,2,4,13.5314,2.9208,1.5088
Ce1 Ru3 Si2,3,0.0,0.0,0.0,0.0,0.0,0.1667,0.3333,0.0,0.1667,0.5,0.6667,1.08,0.3821,0.75,0.2512,5.0,1.675,True,hexagonal,6/mmm,191,16.4727,8.392,1.5635
Br3 N1,2,0.0,0.0,0.0,0.0,0.75,0.0,0.0,0.0,0.0,0.0,-1.5,0.08,0.0346,0.5,0.2165,2.0,0.866,True,cubic,m-3m,225,20.7739,5.0702,1.0
Fe4 Ni3 O24 P6,4,0.0,0.0,0.0,0.6486,0.0,0.0,0.0,0.0,0.0,0.1892,-1.4054,1.61,0.6875,0.8,0.3094,2.0,0.7917,True,triclinic,-1,2,11.2825,3.8556,0.684
C2 Hf4 Sn2,3,0.0,0.0,0.0,0.0,0.0,0.0,0.0,0.0,0.0,0.5,0.0,1.25,0.5211,0.85,0.356,4.0,1.6394,True,hexagonal,6/mmm,194,17.5235,11.5537,0.2285
S8 Ti4,2,0.0,0.0,0.0,0.0,0.0,0.0,0.0,0.0,0.0,0.3333,0.0,1.04,0.4903,0.4,0.1886,1.0,0.4714,True,cubic,m-3m,227,19.7216,3.1433,1.0
Au2 Lu2 Si2,3,0.0,0.0,0.0,0.0,0.0,0.3333,0.3333,0.0,0.3333,0.3333,0.6667,1.27,0.5185,0.65,0.2677,3.0,1.4142,True,hexagonal,-6m2,187,19.3498,11.4428,0.6026
In4 Rh2 Yb2,3,0.0,0.0,0.0,0.0,0.0,0.25,0.0,0.0,0.25,0.25,3.0,2.28,0.8673,0.4,0.1414,3.0,1.299,True,orthorhombic,mmm,63,22.2252,9.4435,0.4989
Br16 Cl4 Sr10,3,0.0,0.0,0.3333,0.0,0.6667,0.0,0.0,0.0,0.0,0.0,0.0,2.21,0.9686,1.0,0.4177,2.0,0.6532,True,tetragonal,4/m,85,32.1145,3.9581,0.617
Ba2 O6 Ta1 Y1,4,0.0,0.0,0.2,0.6,0.0,0.0,0.0,0.0,0.0,0.2,0.0,2.55,1.1455,1.55,0.6569,4.0,1.8574,True,cubic,m-3m,225,15.5961,6.8195,1.0
H24 O96 S24 Y8,4,0.0,0.0,0.0,0.6316,0.0,0.0,0.0,0.0,0.0,0.0526,-1.5789,2.22,0.6464,1.55,0.3396,4.0,0.8744,True,orthorhombic,mmm,61,13.1178,2.5325,0.5655
Cu2 I2,2,0.0,0.0,0.0,0.0,0.5,0.0,0.0,0.0,0.0,0.5,0.5,0.76,0.38,0.05,0.025,1.0,0.5,True,tetragonal,4/mmm,129,27.7304,5.7022,0.6274
Ce4 Mg2 Ni4,3,0.0,0.0,0.2,0.0,0.0,0.4,0.0,0.0,0.4,0.4,2.4,0.79,0.3627,0.5,0.2272,5.0,2.1541,True,tetragonal,4/mmm,127,20.5151,6.8303,0.4799
H1 Pd1,2,0.0,0.0,0.0,0.0,0.0,0.0,0.0,0.0,0.0,0.5,0.5,0.0,0.0,1.15,0.575,4.0,2.0,True,cubic,m-3m,225,8.869,10.0568,1.0
Ba8 F8 S12 Sn4,4,0.0,0.0,0.25,0.0,0.25,0.0,0.0,0.0,0.0,0.0,-1.0,3.09,1.1089,1.65,0.6088,4.0,1.5612,True,orthorhombic,mmm,62,24.855,4.4057,0.3219
Be6 Cd8 O24 Si6 Te2,5,0.0,0.0,0.1304,0.5652,0.0,0.0,0.1739,0.0,0.0,0.1739,-1.0435,1.87,0.851,0.95,0.3727,3.0,1.2143,True,cubic,-43m,218,14.2374,4.4651,1.0
Cr6 Pt2,2,0.0,0.0,0.0,0.0,0.0,0.0,0.0,0.0,0.0,1.0,2.75,0.62,0.2685,0.05,0.0217,2.0,0.866,True,cubic,m-3m,223,12.7894,11.3955,1.0
Au24 Na8 Si8,3,0.0,0.2,0.0,0.0,0.0,0.0,0.2,0.0,0.0,0.6,1.2,1.61,0.6307,0.7,0.2267,3.0,1.4697,True,cubic,m-3,205,18.7028,11.3996,1.0
O12 Pr4 Ru4,3,0.0,0.0,0.0,0.6,0.0,0.2,0.0,0.0,0.2,0.2,0.0,2.31,0.9331,1.25,0.5083,6.0,2.4,True,orthorhombic,mmm,62,12.6474,7.6144,0.6853
Mn1 Pt3,2,0.0,0.0,0.0,0.0,0.0,0.0,0.0,0.0,0.0,1.0,2.0,0.73,0.3161,0.05,0.0217,2.0,0.866,True,cubic,m-3m,221,15.2452,17.4327,1.0
Ca1 Mg2 N2,3,0.0,0.0,0.6,0.0,0.0,0.0,0.0,0.0,0.0,0.0,0.0,2.04,0.9053,1.15,0.4781,2.0,0.7483,True,trigonal,-3m,164,13.4316,2.8855,0.5816
Br1 H4 N1,3,0.0,0.0,0.0,0.0,0.1667,0.0,0.0,0.0,0.0,0.0,-1.3333,0.84,0.3778,0.9,0.3387,3.0,1.1055,True,cubic,-43m,215,11.1671,2.4273,1.0
Ce4 Pd18 Sb6,3,0.0,0.0,0.0,0.0,0.0,0.1429,0.2143,0.0,0.1429,0.6429,1.0714,1.08,0.3697,0.45,0.1544,3.0,1.0498,True,orthorhombic,mmm,63,18.9791,10.0198,0.8565
Rh1 Sb1 Th1,3,0.3333,0.0,0.0,0.0,0.0,0.0,0.3333,0.0,0.3333,0.3333,1.3333,0.98,0.4184,0.45,0.1929,4.0,1.8856,True,cubic,-43m,216,25.3925,9.9553,1.0
Ag4 Cu4 S4,3,0.0,0.0,0.0,0.0,0.0,0.0,0.0,0.0,0.0,0.6667,0.3333,0.68,0.3137,0.6,0.2461,2.0,0.8165,True,orthorhombic,mm2,26,18.3839,6.1265,0.4848
Nb2 Se4,2,0.0,0.0,0.0,0.6667,0.0,0.0,0.0,0.0,0.0,0.3333,0.3333,0.95,0.4478,0.3,0.1414,1.0,0.4714,True,hexagonal,6/mmm,194,24.1772,5.7424,0.2536
Na2 Nb2 O4,3,0.0,0.25,0.0,0.5,0.0,0.0,0.0,0.0,0.0,0.25,0.5,2.51,1.113,1.2,0.5272,3.0,1.2247,True,hexagonal,6/mmm,194,11.3386,5.4148,0.2562
Eu8 O28 Si8,3,0.0,0.0,0.0,0.6364,0.0,0.1818,0.1818,0.0,0.1818,0.0,-1.6364,3.44,1.3277,1.25,0.4778,6.0,2.26,True,orthorhombic,mm2,33,14.0733,5.064,0.3621
O2 Te1 U2,3,0.4,0.0,0.0,0.6,0.0,0.0,0.2,0.0,0.4,0.0,1.2,2.06,0.9296,1.15,0.5221,7.0,3.1369,True,tetragonal,4/mmm,139,19.2156,10.9862,0.5808
Cu6 P2,2,0.0,0.0,0.0,0.0,0.0,0.0,0.0,0.0,0.0,0.75,0.75,0.29,0.1256,0.35,0.1516,1.0,0.433,True,trigonal,-3m,164,12.7279,7.2281,0.567
Na4 O28 P8 V4,4,0.0,0.0909,0.0,0.6364,0.0,0.0,0.0,0.0,0.0,0.0909,-1.2727,2.51,0.8776,1.2,0.3855,2.0,0.6556,True,monoclinic,2/m,14,12.3515,3.0295,0.766
Ga2 Y1,2,0.0,0.0,0.0,0.0,0.0,0.0,0.0,0.0,0.0,0.3333,3.0,0.59,0.2781,0.5,0.2357,1.0,0.4714,True,hexagonal,6/mmm,191,21.2269,5.9545,1.0202
Cu6 Li8 O12,3,0.0,0.3077,0.0,0.4615,0.0,0.0,0.0,0.0,0.0,0.2308,-0.1538,2.46,1.0826,0.85,0.404,2.0,0.8427,True,monoclinic,2/m,12,10.5906,3.792,2.1396