formula,numberOfSpecies,fracActinoid,fracAlkali,fracAlkaline,fracChalcogen,fracHalogen,fracLanthanoid,fracMetalloid,fracNobleGas,fracRareEarth,fracTransitionMetal,electronsPerAtom,electronegativityRange,electronegativityStd,radiiRange,radiiStd,rowRange,rowStd,ordered,crystalSystem,pointGroup,spaceGroupNumber,volumePerSite,density,c_a
Al4 F16 Rb4,3,0.0,0.1667,0.0,0.0,0.6667,0.0,0.0,0.0,0.0,0.0,0.0,3.16,1.3232,1.85,0.6902,3.0,1.1055,True,orthorhombic,mmm,59,14.4952,3.5979,0.8669
Al4 O12 Sc4,3,0.0,0.0,0.0,0.6,0.0,0.0,0.0,0.0,0.0,0.2,0.0,2.08,0.961,1.0,0.419,2.0,0.8,True,orthorhombic,mmm,62,9.5535,4.1693,0.6815
I4 Sb4 Se4,3,0.0,0.0,0.0,0.3333,0.3333,0.0,0.3333,0.0,0.0,0.0,-2.0,0.61,0.2655,0.3,0.1312,1.0,0.4714,True,orthorhombic,mmm,62,35.4953,5.109,0.3772
Bi6 Sr8,2,0.0,0.0,0.5714,0.0,0.0,0.0,0.0,0.0,0.0,0.0,2.4286,1.07,0.5295,0.4,0.1979,1.0,0.4949,True,cubic,-43m,220,38.1783,6.0732,1.0
Cd2 Sm1,2,0.0,0.0,0.0,0.0,0.0,0.3333,0.0,0.0,0.3333,0.6667,2.3333,0.52,0.2451,0.3,0.1414,3.0,1.4142,True,trigonal,-3m,164,25.5978,8.1127,1.4527
Ge4 In2 Nd4,3,0.0,0.0,0.0,0.0,0.0,0.4,0.4,0.0,0.4,0.0,0.2,0.87,0.3976,0.6,0.2683,4.0,1.833,True,tetragonal,4/mmm,127,25.1687,7.2387,0.5742
Br4 La2,2,0.0,0.0,0.0,0.0,0.6667,0.3333,0.0,0.0,0.3333,0.3333,0.3333,1.86,0.8768,0.8,0.3771,4.0,1.8856,True,hexagonal,6/mmm,194,37.9937,4.3518,0.2713
Al2 Gd1 Si2,3,0.0,0.0,0.0,0.0,0.0,0.2,0.4,0.0,0.2,0.0,0.2,0.7,0.2571,0.7,0.2588,5.0,2.0,True,trigonal,-3m,164,20.4381,4.3448,0.6338
Ga2 In2 O6,3,0.0,0.0,0.0,0.6,0.0,0.0,0.0,0.0,0.0,0.0,0.0,1.66,0.8059,0.95,0.4118,3.0,1.2649,True,hexagonal,6/mmm,194,11.9635,6.4553,0.2758
Cr4 Ge8 Li4 O24,4,0.0,0.1,0.0,0.6,0.0,0.0,0.2,0.0,0.0,0.1,-1.6,2.46,0.9093,0.85,0.3657,2.0,0.9165,True,monoclinic,2/m,14,11.3733,4.3832,0.5617
Ni8 O16 Si4,3,0.0,0.0,0.0,0.5714,0.0,0.0,0.1429,0.0,0.0,0.2857,-1.1429,1.54,0.7588,0.75,0.3388,2.0,0.8806,True,orthorhombic,mmm,62,10.4318,4.7634,0.4654
Pb8 Pt2,2,0.0,0.0,0.0,0.0,0.0,0.0,0.0,0.0,0.0,0.2,2.0,0.05,0.02,0.45,0.18,0.0,0.0,True,tetragonal,4/mmm,125,28.4117,11.9683,0.9037
Ba6 O30 Si12,3,0.0,0.0,0.125,0.625,0.0,0.0,0.25,0.0,0.0,0.0,-2.0,2.55,0.9542,1.55,0.5111,4.0,1.299,True,monoclinic,2/m,15,15.8855,3.5736,0.3423
B2 Pu1,2,0.3333,0.0,0.0,0.0,0.0,0.0,0.6667,0.0,0.3333,0.0,3.3333,0.76,0.3583,0.9,0.4243,7.0,3.2998,True,hexagonal,6/mmm,191,11.4854,12.8011,0.7911
Mn4 Te8,2,0.0,0.0,0.0,0.6667,0.0,0.0,0.6667,0.0,0.0,0.3333,-0.6667,0.55,0.2593,0.0,0.0,1.0,0.4714,True,cubic,m-3,205,24.9879,6.8699,1.0
Re4 Si4,2,0.0,0.0,0.0,0.0,0.0,0.0,0.5,0.0,0.0,0.5,0.0,0.0,0.0,0.25,0.125,3.0,1.5,True,cubic,23,198,13.8692,12.8285,1.0
Cl8 U2,2,0.2,0.0,0.0,0.0,0.8,0.0,0.0,0.0,0.2,0.0,0.4,1.78,0.712,0.75,0.3,6.0,2.4,True,tetragonal,4/mmm,141,27.2511,4.6291,1.0
Al1 Ir1,2,0.0,0.0,0.0,0.0,0.0,0.0,0.0,0.0,0.0,0.5,3.0,0.59,0.295,0.1,0.05,3.0,1.5,True,cubic,m-3m,221,13.7406,13.2449,1.0
O6 Si3,2,0.0,0.0,0.0,0.6667,0.0,0.0,0.3333,0.0,0.0,0.0,-2.6667,1.54,0.726,0.5,0.2357,1.0,0.4714,True,hexagonal,622,181,14.0237,2.3715,0.9131
Co2 Ge2 Pr1,3,0.0,0.0,0.0,0.0,0.0,0.2,0.4,0.0,0.2,0.4,-0.2,0.88,0.3311,0.6,0.2245,4.0,1.6,True,tetragonal,4/mmm,139,16.9198,7.9309,0.6812
P8 S28 Zr4,3,0.0,0.0,0.0,0.0,0.0,0.0,0.0,0.0,0.0,0.1,-1.6,1.25,0.3814,0.55,0.165,2.0,0.6,True,orthorhombic,mmm,70,26.2447,2.3893,0.5605
Cu20 K12 O16,3,0.0,0.25,0.0,0.3333,0.0,0.0,0.0,0.0,0.0,0.4167,0.4167,2.62,1.0114,1.6,0.6056,2.0,0.9428,True,monoclinic,2/m,14,19.6133,3.5208,0.5205
La7 Mo7 O30,3,0.0,0.0,0.0,0.6818,0.0,0.1591,0.0,0.0,0.1591,0.3182,-0.25,2.34,0.8945,1.35,0.5314,6.0,2.2603,True,trigonal,-3,148,13.5603,5.911,1.0
Br18 K4 Nb6,3,0.0,0.1429,0.0,0.0,0.6429,0.0,0.0,0.0,0.0,0.2143,0.5714,2.14,0.8331,1.05,0.3618,1.0,0.4103,True,monoclinic,2/m,12,32.2337,3.9595,0.9902
Cr2 O8 Tb2,3,0.0,0.0,0.0,0.6667,0.0,0.1667,0.0,0.0,0.1667,0.1667,-0.3333,3.44,1.3204,1.15,0.4706,6.0,2.2111,True,tetragonal,4/mmm,141,13.809,5.5099,1.0
Ga8 H20 O44 P8 Rb4,5,0.0,0.0476,0.0,0.5238,0.0,0.0,0.0,0.0,0.0,0.0,-1.2381,2.62,0.7828,2.1,0.4753,4.0,1.0519,True,monoclinic,2/m,14,10.8943,3.3961,0.9917
Nd2 S2 Te1,3,0.0,0.0,0.0,0.2,0.0,0.4,0.2,0.0,0.4,0.0,0.0,1.44,0.6511,0.85,0.3803,5.0,2.245,True,trigonal,-3m,164,29.2207,5.4579,0.5993
Cl4 Li2 Rb2,3,0.0,0.5,0.0,0.0,0.5,0.0,0.0,0.0,0.0,0.0,0.0,2.34,1.1314,1.35,0.5511,3.0,1.0897,True,orthorhombic,mmm,63,27.7896,2.4397,0.5493
La16 O24,2,0.0,0.0,0.0,0.6,0.0,0.4,0.0,0.0,0.4,0.4,0.0,2.34,1.1464,1.35,0.6614,6.0,2.9394,True,cubic,m-3,206,18.5284,5.8399,1.0
Tb4 Tl2,2,0.0,0.0,0.0,0.0,0.0,0.6667,0.0,0.0,0.6667,0.0,2.3333,1.62,0.7637,0.15,0.0707,2.0,0.9428,True,hexagonal,6/mmm,194,28.8685,10.0131,0.804
Cl8 N2 V2,3,0.0,0.0,0.0,0.0,0.6667,0.0,0.0,0.0,0.0,0.1667,-0.3333,1.53,0.563,0.7,0.2021,2.0,0.5774,True,triclinic,-1,2,26.9621,2.1223,0.7297
Eu2 In8 Pd2,3,0.0,0.0,0.0,0.0,0.0,0.1667,0.0,0.0,0.1667,0.1667,2.6667,2.2,0.7114,0.45,0.1346,3.0,1.118,True,orthorhombic,mmm,63,24.7801,8.0152,0.5147
Ce2 Os4,2,0.0,0.0,0.0,0.0,0.0,0.3333,0.0,0.0,0.3333,0.6667,3.6667,1.08,0.5091,0.55,0.2593,2.0,0.9428,True,cubic,m-3m,227,18.5355,15.5456,1.0
Pt4 Sc4 Si4,3,0.0,0.0,0.0,0.0,0.0,0.0,0.3333,0.0,0.0,0.6667,0.3333,0.92,0.3775,0.5,0.2041,3.0,1.2472,True,orthorhombic,mmm,62,16.8022,8.8328,0.5673
Au4 Dy4 In2,3,0.0,0.0,0.0,0.0,0.0,0.4,0.0,0.0,0.4,0.4,3.0,1.32,0.5917,0.4,0.1789,3.0,1.2,True,tetragonal,4/mmm,127,23.8016,11.6335,0.4684
F24 K8 Sn8,3,0.0,0.2,0.0,0.0,0.6,0.0,0.0,0.0,0.0,0.0,-1.2,3.16,1.3191,1.7,0.6911,3.0,1.2649,True,triclinic,-1,2,20.1244,3.5449,0.7837
Rb3 Sb1,2,0.0,0.75,0.0,0.0,0.0,0.0,0.25,0.0,0.0,0.0,0.0,1.23,0.5326,0.9,0.3897,0.0,0.0,True,cubic,m-3m,225,45.1242,3.479,1.0
I12 La12 P4,3,0.0,0.0,0.0,0.0,0.4286,0.4286,0.0,0.0,0.4286,0.4286,0.4286,1.56,0.7302,0.95,0.3473,5.0,1.8516,True,cubic,432,214,35.3813,5.5542,1.0
Ge6 Ho6 Ru4,3,0.0,0.0,0.0,0.0,0.0,0.375,0.375,0.0,0.375,0.25,0.375,0.97,0.4209,0.5,0.2332,4.0,1.7854,True,orthorhombic,mmm,63,20.0621,9.4652,0.3062
Er8 Sb6,2,0.0,0.0,0.0,0.0,0.0,0.5714,0.4286,0.0,0.5714,0.0,0.4286,0.81,0.4008,0.3,0.1485,3.0,1.4846,True,cubic,-43m,220,27.104,9.0525,1.0
H2 Hf1,2,0.0,0.0,0.0,0.0,0.0,0.0,0.0,0.0,0.0,0.3333,0.6667,0.9,0.4243,1.3,0.6128,5.0,2.357,True,tetragonal,4/mmm,139,8.7141,11.4656,1.0
Be26 Ca2,2,0.0,0.0,1.0,0.0,0.0,0.0,0.0,0.0,0.0,0.0,2.0,0.57,0.1468,0.75,0.1932,2.0,0.5151,True,cubic,m-3m,226,9.577,1.9474,1.0
F28 Hf4 K4 Pd4,4,0.0,0.1,0.0,0.0,0.7,0.0,0.0,0.0,0.0,0.2,0.0,3.16,1.2054,1.7,0.5891,4.0,1.4457,True,orthorhombic,mmm,52,15.1904,4.9957,0.5615
Ru3 Sn3 U3,3,0.3333,0.0,0.0,0.0,0.0,0.0,0.0,0.0,0.3333,0.3333,1.6667,0.82,0.3442,0.45,0.1871,4.0,1.8856,True,hexagonal,-6m2,189,20.8524,12.1522,1.824
Pb6 S30 Sb16,3,0.0,0.0,0.0,0.0,0.0,0.0,0.3077,0.0,0.0,0.0,-1.8462,0.53,0.2383,0.8,0.2879,3.0,1.1596,True,monoclinic,2/m,15,27.7511,4.7793,0.4933
Ba2 C4,2,0.0,0.0,0.3333,0.0,0.0,0.0,0.0,0.0,0.0,0.0,-2.0,1.66,0.7825,1.45,0.6835,4.0,1.8856,True,monoclinic,2/m,15,23.8724,3.7411,0.5412
Al1 Zr3,2,0.0,0.0,0.0,0.0,0.0,0.0,0.0,0.0,0.0,0.75,3.75,0.28,0.1212,0.3,0.1299,2.0,0.866,True,cubic,m-3m,221,21.1059,5.9136,1.0
F10 Pd2 Rb6,3,0.0,0.3333,0.0,0.0,0.5556,0.0,0.0,0.0,0.0,0.1111,-0.0,3.16,1.4544,1.85,0.8469,3.0,1.4907,True,tetragonal,4/mmm,127,21.0723,4.0085,0.8599
In4 Mg2 S8,3,0.0,0.0,0.1429,0.0,0.0,0.0,0.0,0.0,0.0,0.0,0.0,1.27,0.4951,0.55,0.2644,2.0,0.9035,True,cubic,m-3m,227,23.1,3.9249,1.0
B12 Cu6 O24,3,0.0,0.0,0.0,0.5714,0.0,0.0,0.2857,0.0,0.0,0.1429,0.0,1.54,0.7172,0.75,0.2575,2.0,0.6999,True,tetragonal,-42m,122,9.0966,3.8899,0.6545
Hf3 P3 Ru3,3,0.0,0.0,0.0,0.0,0.0,0.0,0.0,0.0,0.0,0.6667,1.3333,0.9,0.4219,0.55,0.2248,3.0,1.2472,True,hexagonal,-6m2,189,15.1162,11.3709,1.6969
Al24 O38 Sr2,3,0.0,0.0,0.0313,0.5938,0.0,0.0,0.0,0.0,0.0,0.0,0.0,2.49,0.9305,1.4,0.3702,3.0,0.6607,True,hexagonal,6/mmm,194,9.493,3.9105,0.2539
Au2 P2 S8 Tl4,4,0.0,0.0,0.0,0.0,0.0,0.0,0.0,0.0,0.0,0.125,-0.75,0.96,0.4041,0.9,0.3816,3.0,1.4524,True,monoclinic,2/m,11,27.0452,5.871,0.6936
Co4 Ge4,2,0.0,0.0,0.0,0.0,0.0,0.0,0.5,0.0,0.0,0.5,-1.0,0.13,0.065,0.1,0.05,0.0,0.0,True,monoclinic,2/m,12,13.3777,8.1659,0.6104
Ag32 Ge4 S24,3,0.0,0.0,0.0,0.0,0.0,0.0,0.0667,0.0,0.0,0.5333,-0.5333,0.65,0.3147,0.6,0.2878,2.0,0.9568,True,orthorhombic,mm2,33,20.91,5.9718,0.498
Cu24 Sm4,2,0.0,0.0,0.0,0.0,0.0,0.1429,0.0,0.0,0.1429,0.8571,2.1429,0.73,0.2554,0.5,0.175,4.0,1.3997,True,orthorhombic,mmm,62,14.6269,8.6221,0.4978
B2 C1 Co2 Pr1,4,0.0,0.0,0.0,0.0,0.0,0.1667,0.3333,0.0,0.1667,0.3333,1.5,1.42,0.4189,1.15,0.3983,6.0,2.1344,True,tetragonal,4/mmm,139,11.4188,7.087,0.6497
Ga20 Nd12 O48,3,0.0,0.0,0.0,0.6,0.0,0.15,0.0,0.0,0.15,0.0,0.0,2.3,0.9442,1.25,0.4748,6.0,2.1071,True,cubic,m-3m,230,12.6723,6.3771,1.0
Mo4 O16 Pr2 Tl2,4,0.0,0.0,0.0,0.6667,0.0,0.0833,0.0,0.0,0.0833,0.1667,-0.3333,2.31,0.8264,1.3,0.5158,6.0,2.0138,True,tetragonal,4/mmm,126,16.8008,5.4786,0.6588
B1 P1,2,0.0,0.0,0.0,0.0,0.0,0.0,0.5,0.0,0.0,0.0,0.0,0.15,0.075,0.15,0.075,1.0,0.5,True,cubic,-43m,216,11.7498,2.9526,1.0
Al2 Cu1 U1,3,0.25,0.0,0.0,0.0,0.0,0.0,0.0,0.0,0.25,0.25,3.5,0.52,0.1845,0.5,0.2062,6.0,2.4875,True,tetragonal,4/mmm,139,17.8167,8.2841,0.9976
Mn1 Pd2 Sb1,3,0.0,0.0,0.0,0.0,0.0,0.0,0.25,0.0,0.0,0.75,0.75,0.65,0.2669,0.05,0.0217,1.0,0.433,True,cubic,m-3m,225,16.9985,9.5132,1.0
Er1 Ni2 Si2,3,0.0,0.0,0.0,0.0,0.0,0.2,0.4,0.0,0.2,0.4,-0.2,0.67,0.266,0.65,0.2379,5.0,1.8547,True,tetragonal,4/mmm,139,14.7596,7.6688,0.7168
Bi2 Se2 Te1,3,0.0,0.0,0.0,0.6,0.0,0.0,0.2,0.0,0.0,0.0,0.0,0.53,0.2483,0.45,0.2015,2.0,0.8944,True,trigonal,-3m,166,33.4766,6.979,1.0
Ba8 Sb16 Se32,3,0.0,0.0,0.1429,0.5714,0.0,0.0,0.2857,0.0,0.0,0.0,-1.7143,1.66,0.5663,1.0,0.3411,2.0,0.7284,True,monoclinic,2/m,14,31.0611,5.3207,0.4122
Na3 O30 W10,3,0.0,0.0698,0.0,0.6977,0.0,0.0,0.0,0.0,0.0,0.2326,-0.3953,2.51,0.7274,1.2,0.4058,4.0,1.6705,True,monoclinic,2/m,10,13.6887,6.7349,3.5336
Ba4 Mn4 O16 Rb4,4,0.0,0.1429,0.1429,0.5714,0.0,0.0,0.0,0.0,0.0,0.1429,-0.4286,2.62,1.1843,1.75,0.7274,4.0,1.5779,True,orthorhombic,mmm,62,18.0142,4.5001,0.5697
Ca1 Hg1,2,0.0,0.0,0.5,0.0,0.0,0.0,0.0,0.0,0.0,0.5,1.5,1.0,0.5,0.3,0.15,2.0,1.0,True,cubic,m-3m,221,27.6949,7.215,1.0
Ca2 N2 Ni2,3,0.0,0.0,0.3333,0.0,0.0,0.0,0.0,0.0,0.0,0.3333,0.3333,2.04,0.8344,1.15,0.4732,2.0,0.9428,True,tetragonal,4/mmm,131,14.8766,4.1961,0.5044
B8 La2 Ru8,3,0.0,0.0,0.0,0.0,0.0,0.1111,0.4444,0.0,0.1111,0.5556,3.0,1.1,0.3293,1.1,0.3473,6.0,2.0,True,tetragonal,4/m,86,12.871,8.4064,0.5293
Ca2 N1,2,0.0,0.0,0.6667,0.0,0.0,0.0,0.0,0.0,0.0,0.0,0.3333,2.04,0.9617,1.15,0.5421,2.0,0.9428,True,trigonal,-3m,166,24.111,2.1617,1.0
As8 Se12,2,0.0,0.0,0.0,0.6,0.0,0.0,0.4,0.0,0.0,0.0,-2.4,0.37,0.1813,0.0,0.0,0.0,0.0,True,monoclinic,2/m,14,29.9797,4.284,0.3712
Cr2 Ge6 Pr2,3,0.0,0.0,0.0,0.0,0.0,0.2,0.6,0.0,0.2,0.2,-1.2,0.88,0.3448,0.6,0.2324,4.0,1.6,True,hexagonal,6/mmm,194,19.0678,7.1554,1.074
Ba8 In16 S32,3,0.0,0.0,0.1429,0.0,0.0,0.0,0.0,0.0,0.0,0.0,0.0,1.69,0.6083,1.15,0.4148,3.0,1.1952,True,orthorhombic,mmm,70,29.2815,4.012,0.9905
Ca4 Fe8 O16,3,0.0,0.0,0.1429,0.5714,0.0,0.0,0.0,0.0,0.0,0.2857,-0.2857,2.44,0.9682,1.2,0.4781,2.0,0.9897,True,orthorhombic,mmm,62,11.0425,4.6352,0.2817
Bi4 K12 Se12,3,0.0,0.4286,0.0,0.4286,0.0,0.0,0.0,0.0,0.0,0.0,0.0,1.73,0.8094,1.05,0.4868,2.0,0.6999,True,cubic,23,198,35.2277,3.7922,1.0
Be1 O1,2,0.0,0.0,0.5,0.5,0.0,0.0,0.0,0.0,0.0,0.0,0.0,1.87,0.935,0.45,0.225,0.0,0.0,True,cubic,m-3m,225,6.0746,3.4185,1.0
O8 Sm2 Ta2,3,0.0,0.0,0.0,0.6667,0.0,0.1667,0.0,0.0,0.1667,0.1667,0.0,2.27,0.9969,1.25,0.5083,6.0,2.4267,True,monoclinic,2/m,15,13.2072,8.2836,0.7707
Li4 Mo4 O8,3,0.0,0.25,0.0,0.5,0.0,0.0,0.0,0.0,0.0,0.25,0.25,2.46,1.0239,0.85,0.425,3.0,1.299,True,monoclinic,2/m,14,10.6413,5.2619,0.8778
Fe1 Sb2 Y6,3,0.0,0.0,0.0,0.0,0.0,0.0,0.2222,0.0,0.0,0.7778,1.5556,0.83,0.3617,0.4,0.1734,1.0,0.3143,True,hexagonal,-6m2,189,27.0787,5.6744,1.9838
Li2 O2 Pd1,3,0.0,0.4,0.0,0.4,0.0,0.0,0.0,0.0,0.0,0.2,0.0,2.46,1.1002,0.85,0.4087,3.0,1.2,True,monoclinic,2/m,12,10.8188,4.6752,0.5768
Cr8 O32 Sr16,3,0.0,0.0,0.2857,0.5714,0.0,0.0,0.0,0.0,0.0,0.1429,-0.1429,2.49,1.1364,1.4,0.622,3.0,1.3553,True,orthorhombic,mm2,33,15.3647,4.4964,0.4109
As3 Fe3 Mn3,3,0.0,0.0,0.0,0.0,0.0,0.0,0.3333,0.0,0.0,0.6667,0.3333,0.63,0.2577,0.25,0.1179,0.0,0.0,True,hexagonal,-6m2,189,13.0222,7.8934,1.8154
Hf2 Se2 Si2,3,0.0,0.0,0.0,0.3333,0.0,0.0,0.3333,0.0,0.0,0.3333,-0.6667,1.25,0.5104,0.45,0.2014,3.0,1.2472,True,tetragonal,4/mmm,129,18.4462,8.568,0.4175
La2 O8 Ta2,3,0.0,0.0,0.0,0.6667,0.0,0.1667,0.0,0.0,0.1667,0.3333,0.0,2.34,1.0154,1.35,0.5383,6.0,2.4267,True,orthorhombic,mm2,36,14.0642,7.5535,0.5125
B6 K6 S12,3,0.0,0.25,0.0,0.0,0.0,0.0,0.25,0.0,0.0,0.0,0.0,1.76,0.7188,1.35,0.5447,2.0,0.7071,True,trigonal,-3m,167,26.1101,1.8132,1.0
H12 Li2 Mn2 O14,4,0.0,0.0667,0.0,0.4667,0.0,0.0,0.0,0.0,0.0,0.0667,-1.1333,2.46,0.7993,1.2,0.3727,3.0,0.7717,True,hexagonal,6mm,186,9.8472,2.0227,1.3752
Au2 Cu2 Se8,3,0.0,0.0,0.0,0.6667,0.0,0.0,0.0,0.0,0.0,0.3333,-0.5,0.65,0.2415,0.2,0.0943,2.0,0.7454,True,monoclinic,2/m,11,22.9339,6.9552,0.5424
Cd1 N3 O6 Rb1,4,0.0,0.0909,0.0,0.5455,0.0,0.0,0.0,0.0,0.0,0.0909,-1.6364,2.62,0.8305,1.75,0.5422,3.0,1.1571,True,cubic,m-3,200,19.6617,2.5789,1.0
Hf2 Si4,2,0.0,0.0,0.0,0.0,0.0,0.0,0.6667,0.0,0.0,0.3333,-1.3333,0.6,0.2828,0.45,0.2121,3.0,1.4142,True,orthorhombic,mmm,63,16.3952,7.9223,0.4872
Ca2 Cl4,2,0.0,0.0,0.3333,0.0,0.6667,0.0,0.0,0.0,0.0,0.0,0.0,2.16,1.0182,0.8,0.3771,1.0,0.4714,True,tetragonal,4/mmm,136,29.1832,2.105,0.6559
Sn4 Y4 Zn4,3,0.0,0.0,0.0,0.0,0.0,0.0,0.0,0.0,0.0,0.6667,0.3333,0.74,0.3034,0.45,0.1929,1.0,0.4714,True,hexagonal,6/mmm,194,23.6741,6.3835,0.2799
Eu1 Ni2 Si2,3,0.0,0.0,0.0,0.0,0.0,0.2,0.4,0.0,0.2,0.4,-0.4,1.91,0.762,0.75,0.2739,5.0,1.8547,True,tetragonal,4/mmm,139,15.8319,6.8285,0.7149
Cl6 Cs2 Pb1,3,0.0,0.2222,0.0,0.0,0.6667,0.0,0.0,0.0,0.0,0.0,-0.2222,2.37,0.9704,1.6,0.6652,3.0,1.4142,True,cubic,m-3m,225,35.4128,3.5727,1.0
Co4 O8 Tc2,3,0.0,0.0,0.0,0.5714,0.0,0.0,0.0,0.0,0.0,0.4286,0.0,1.56,0.7687,0.75,0.3712,3.0,1.1952,True,orthorhombic,mmm,74,11.304,5.8731,1.0
Al1 Sb1,2,0.0,0.0,0.0,0.0,0.0,0.0,0.5,0.0,0.0,0.0,0.0,0.44,0.22,0.2,0.1,2.0,1.0,True,cubic,-43m,216,30.2803,4.0784,1.0
Hg1 Tm1,2,0.0,0.0,0.0,0.0,0.0,0.5,0.0,0.0,0.5,0.5,2.0,0.75,0.375,0.25,0.125,2.0,1.0,True,cubic,m-3m,221,24.9638,12.29,1.0
B32 Li8 O56 Rb8,4,0.0,0.1538,0.0,0.5385,0.0,0.0,0.3077,0.0,0.0,0.0,0.0,2.62,0.96,1.75,0.4834,3.0,0.7994,True,orthorhombic,222,19,12.6909,2.4926,0.6741
Rb12 Sb4 Se12,3,0.0,0.4286,0.0,0.4286,0.0,0.0,0.1429,0.0,0.0,0.0,-0.8571,1.73,0.811,1.2,0.5653,1.0,0.4949,True,cubic,23,198,40.0804,3.6402,1.0
Bi1 Ni1 Zr1,3,0.0,0.0,0.0,0.0,0.0,0.0,0.0,0.0,0.0,0.6667,3.0,0.69,0.3027,0.25,0.108,2.0,0.8165,True,cubic,-43m,216,20.7569,9.5705,1.0
Fe6 Sn2,2,0.0,0.0,0.0,0.0,0.0,0.0,0.0,0.0,0.0,0.75,0.5,0.13,0.0563,0.05,0.0217,1.0,0.433,True,hexagonal,6/mmm,194,13.9644,8.5095,1.259
Ag2 Mn12 O48 P14,4,0.0,0.0,0.0,0.6316,0.0,0.0,0.0,0.0,0.0,0.1842,-1.4737,1.89,0.7673,1.0,0.325,3.0,0.847,True,monoclinic,2/m,11,12.325,3.6813,0.2005
Ca4 F12 K4,3,0.0,0.2,0.2,0.0,0.6,0.0,0.0,0.0,0.0,0.0,0.0,3.16,1.5051,1.7,0.7457,2.0,0.9798,True,orthorhombic,mmm,62,17.3328,2.6091,0.7023
Na12 Se14 Si4,3,0.0,0.4,0.0,0.4667,0.0,0.0,0.1333,0.0,0.0,0.0,-1.0667,1.62,0.7526,0.7,0.3243,1.0,0.4989,True,monoclinic,2/m,15,26.7395,3.0919,0.453
Ge4 Mn4 Y4,3,0.0,0.0,0.0,0.0,0.0,0.0,0.3333,0.0,0.0,0.6667,0.3333,0.79,0.324,0.55,0.2321,1.0,0.4714,True,orthorhombic,mmm,62,19.3976,6.1774,0.5103
N8 Si6,2,0.0,0.0,0.0,0.0,0.0,0.0,0.4286,0.0,0.0,0.0,-3.4286,1.14,0.5642,0.45,0.2227,1.0,0.4949,True,hexagonal,6/m,176,9.4753,3.5121,1.5605
Br6 Cs2 Pt1,3,0.0,0.2222,0.0,0.0,0.6667,0.0,0.0,0.0,0.0,0.1111,-0.2222,2.17,0.887,1.45,0.5942,2.0,0.9428,True,cubic,m-3m,225,37.4678,4.6305,1.0
Al3 V1,2,0.0,0.0,0.0,0.0,0.0,0.0,0.0,0.0,0.0,0.25,3.5,0.02,0.0087,0.1,0.0433,1.0,0.433,True,tetragonal,4/mmm,139,14.7391,3.7147,0.7631
Gd12 O32 Re4,3,0.0,0.0,0.0,0.6667,0.0,0.25,0.0,0.0,0.25,0.0833,-0.25,2.24,0.9891,1.2,0.5249,6.0,2.6405,True,monoclinic,2/m,14,12.8688,8.4513,0.4402
B2 Ir2 Zn1,3,0.0,0.0,0.0,0.0,0.0,0.0,0.4,0.0,0.0,0.6,2.8,0.55,0.2012,0.5,0.2449,4.0,1.7889,True,tetragonal,4/mmm,139,11.4,13.7348,0.4466
Cs2 F4 H2,3,0.0,0.25,0.0,0.0,0.5,0.0,0.0,0.0,0.0,0.0,-0.5,3.19,1.3388,2.35,0.9509,5.0,1.9203,True,tetragonal,4/mmm,140,19.289,3.6998,1.0
Ca4 O12 Si4,3,0.0,0.0,0.2,0.6,0.0,0.0,0.2,0.0,0.0,0.0,-1.6,2.44,1.0156,1.2,0.4716,2.0,0.8,True,cubic,m-3,204,9.3995,4.1043,1.0
Cl4 Li4 O16,3,0.0,0.1667,0.0,0.6667,0.1667,0.0,0.0,0.0,0.0,0.0,-1.3333,2.46,0.9017,0.85,0.322,1.0,0.3727,True,orthorhombic,mmm,62,12.5949,2.3378,0.5619
Al7 Ca3 Cu2,3,0.0,0.0,0.25,0.0,0.0,0.0,0.0,0.0,0.0,0.1667,2.5833,0.9,0.3101,0.55,0.2314,1.0,0.493,True,trigonal,-3m,166,19.319,3.1244,1.0
Al9 Br36 Nd3,3,0.0,0.0,0.0,0.0,0.75,0.0625,0.0,0.0,0.0625,0.0,0.0,1.82,0.6435,0.7,0.1691,5.0,1.0879,True,trigonal,32,152,40.4339,3.0391,0.5759
Eu1 S1,2,0.0,0.0,0.0,0.0,0.0,0.5,0.0,0.0,0.5,0.0,0.0,2.58,1.29,0.85,0.425,5.0,2.5,True,cubic,m-3m,225,25.9328,5.8919,1.0
Ba8 Ge16,2,0.0,0.0,0.3333,0.0,0.0,0.0,0.6667,0.0,0.0,0.0,-2.0,1.12,0.528,0.9,0.4243,2.0,0.9428,True,orthorhombic,mmm,62,31.1555,5.0208,0.5863
Li4 O4 Rb4,3,0.0,0.6667,0.0,0.3333,0.0,0.0,0.0,0.0,0.0,0.0,0.0,2.62,1.1991,1.75,0.7145,3.0,1.4142,True,orthorhombic,mmm,62,17.8656,3.3587,0.3904
Mg2 Ni3 P1,3,0.0,0.0,0.3333,0.0,0.0,0.0,0.0,0.0,0.0,0.5,1.1667,0.88,0.331,0.5,0.1669,1.0,0.5,True,trigonal,-3m,166,12.9189,5.477,1.0
As4 Hf4,2,0.0,0.0,0.0,0.0,0.0,0.0,0.5,0.0,0.0,0.5,0.5,0.88,0.44,0.4,0.2,2.0,1.0,True,hexagonal,6/mmm,194,20.024,10.5074,0.2968
B6 H6 K2,3,0.0,0.1429,0.0,0.0,0.0,0.0,0.4286,0.0,0.0,0.0,1.0,1.38,0.4609,1.95,0.6407,3.0,0.9897,True,cubic,m-3m,225,12.5881,1.405,1.0
Cu4 O4 Rb4,3,0.0,0.3333,0.0,0.3333,0.0,0.0,0.0,0.0,0.0,0.3333,0.3333,2.62,1.0751,1.75,0.7169,3.0,1.2472,True,tetragonal,4/mmm,139,22.5872,4.0437,0.796
Ir6 Sn14,2,0.0,0.0,0.0,0.0,0.0,0.0,0.0,0.0,0.0,0.3,-1.9,0.24,0.11,0.1,0.0458,1.0,0.4583,True,cubic,m-3m,229,21.5808,10.831,1.0
O14 Sn4 Y4,3,0.0,0.0,0.0,0.6364,0.0,0.0,0.0,0.0,0.0,0.1818,-1.4545,2.22,0.9175,1.2,0.5042,3.0,1.4431,True,cubic,m-3m,227,13.21,6.0249,1.0
Ir2 La2 P2,3,0.0,0.0,0.0,0.0,0.0,0.3333,0.0,0.0,0.3333,0.6667,1.0,1.1,0.5162,0.95,0.3923,5.0,2.0548,True,tetragonal,4mm,109,20.7959,9.6377,0.5352
O1 Sm1,2,0.0,0.0,0.0,0.5,0.0,0.5,0.0,0.0,0.5,0.0,0.5,2.27,1.135,1.25,0.625,6.0,3.0,True,cubic,m-3m,225,15.3125,9.0203,1.0
F6 Na1 Rb2 Rh1,4,0.0,0.3,0.0,0.0,0.6,0.0,0.0,0.0,0.0,0.1,0.0,3.16,1.411,1.85,0.7639,3.0,1.3416,True,cubic,m-3m,225,16.221,4.2056,1.0
C12 Nd8,2,0.0,0.0,0.0,0.0,0.0,0.4,0.0,0.0,0.4,0.0,-1.2,1.41,0.6908,1.15,0.5634,6.0,2.9394,True,cubic,-43m,220,15.9948,6.7381,1.0
Mg2 N2 Sr1,3,0.0,0.0,0.6,0.0,0.0,0.0,0.0,0.0,0.0,0.0,0.0,2.09,0.9158,1.35,0.5305,3.0,1.0954,True,trigonal,-3m,164,14.7159,3.7066,0.5693
B40 K8 O64,3,0.0,0.0714,0.0,0.5714,0.0,0.0,0.3571,0.0,0.0,0.0,0.0,2.62,0.8474,1.6,0.4046,2.0,0.5151,True,orthorhombic,mmm,61,14.4166,1.8195,0.3962
Ba2 S6 Ta2,3,0.0,0.0,0.2,0.0,0.0,0.0,0.0,0.0,0.0,0.2,0.2,1.69,0.7054,1.15,0.4501,3.0,1.4697,True,hexagonal,6/mmm,194,24.0101,5.7329,1.2113
As8 Li8,2,0.0,0.5,0.0,0.0,0.0,0.0,0.5,0.0,0.0,0.0,-1.0,1.2,0.6,0.3,0.15,2.0,1.0,True,monoclinic,2/m,14,18.3011,3.7139,0.553
Bi4 Mn2 Ni2 O12,4,0.0,0.0,0.0,0.6,0.0,0.0,0.0,0.0,0.0,0.2,-0.2,1.89,0.7763,1.0,0.4407,4.0,1.6,True,monoclinic,2,5,12.145,8.5808,0.565
Ge2 Te2 U2,3,0.3333,0.0,0.0,0.3333,0.0,0.0,0.6667,0.0,0.3333,0.0,0.0,0.72,0.3203,0.5,0.2095,5.0,2.1602,True,tetragonal,4/mmm,139,24.6832,9.828,0.4454
K4 O4,2,0.0,0.5,0.0,0.5,0.0,0.0,0.0,0.0,0.0,0.0,-0.5,2.62,1.31,1.6,0.8,2.0,1.0,True,orthorhombic,mmm,64,19.7852,2.3121,0.7481
In3 Pr1,2,0.0,0.0,0.0,0.0,0.0,0.25,0.0,0.0,0.25,0.0,3.0,0.65,0.2815,0.3,0.1299,3.0,1.299,True,cubic,m-3m,221,26.7861,7.5222,1.0
Li1 S2 Sn1,3,0.0,0.25,0.0,0.0,0.0,0.0,0.0,0.0,0.0,0.0,-1.75,1.6,0.6543,0.45,0.225,3.0,1.0897,True,trigonal,-3m,164,20.0549,3.9285,0.5797
Cd6 Er2,2,0.0,0.0,0.0,0.0,0.0,0.25,0.0,0.0,0.25,0.75,2.25,0.45,0.1949,0.2,0.0866,3.0,1.299,True,orthorhombic,mmm,63,23.6851,8.8424,0.7498
Mg2 O6 Si2,3,0.0,0.0,0.2,0.6,0.0,0.0,0.2,0.0,0.0,0.0,-1.6,2.13,0.9181,0.9,0.3655,1.0,0.4899,True,trigonal,-3,148,9.0696,3.676,1.0
Gd3 Pd3 Tl3,3,0.0,0.0,0.0,0.0,0.0,0.3333,0.0,0.0,0.3333,0.3333,2.0,1.0,0.41,0.5,0.216,3.0,1.2472,True,hexagonal,-6m2,189,23.2428,11.1464,2.0571