formula,numberOfSpecies,fracActinoid,fracAlkali,fracAlkaline,fracChalcogen,fracHalogen,fracLanthanoid,fracMetalloid,fracNobleGas,fracRareEarth,fracTransitionMetal,electronsPerAtom,electronegativityRange,electronegativityStd,radiiRange,radiiStd,rowRange,rowStd,ordered,crystalSystem,pointGroup,spaceGroupNumber,volumePerSite,density,c_a
Cd6 Cl4 O4,3,0.0,0.0,0.0,0.2857,0.2857,0.0,0.0,0.0,0.0,0.4286,0.0,1.75,0.8037,0.95,0.4008,3.0,1.2936,True,monoclinic,2/m,14,19.4127,5.3784,0.9583
As6 W4,2,0.0,0.0,0.0,0.0,0.0,0.0,0.6,0.0,0.0,0.4,-0.2,0.18,0.0882,0.2,0.098,2.0,0.9798,True,monoclinic,2/m,12,17.7891,11.0604,0.4021
Cs2 I6 Mg2,3,0.0,0.2,0.2,0.0,0.6,0.0,0.0,0.0,0.0,0.0,0.0,1.87,0.8057,1.2,0.4716,3.0,0.9798,True,hexagonal,6/mmm,194,43.2772,4.128,1.1765
Nd2 Zn4,2,0.0,0.0,0.0,0.0,0.0,0.3333,0.0,0.0,0.3333,0.6667,2.3333,0.51,0.2404,0.5,0.2357,4.0,1.8856,True,orthorhombic,mmm,74,21.6612,7.0287,0.7959
Ag2 P2 S6,3,0.0,0.0,0.0,0.0,0.0,0.0,0.0,0.0,0.0,0.2,-1.6,0.65,0.2677,0.6,0.24,2.0,0.8,True,monoclinic,2/m,12,25.0866,3.1115,1.1087
Co1 Li1 O2,3,0.0,0.25,0.0,0.5,0.0,0.0,0.0,0.0,0.0,0.25,-0.25,2.46,1.0542,0.85,0.4016,2.0,0.866,True,trigonal,-3m,166,8.1649,4.9762,1.0
Mo1 Pt2,2,0.0,0.0,0.0,0.0,0.0,0.0,0.0,0.0,0.0,1.0,2.6667,0.12,0.0566,0.1,0.0471,1.0,0.4714,True,orthorhombic,mmm,71,15.4742,17.3881,0.5752
I10 La4,2,0.0,0.0,0.0,0.0,0.7143,0.2857,0.0,0.0,0.2857,0.2857,0.1429,1.56,0.7047,0.55,0.2485,3.0,1.3553,True,monoclinic,2/m,11,43.8496,4.9356,0.2959
Sr2,1,0.0,0.0,1.0,0.0,0.0,0.0,0.0,0.0,0.0,0.0,2.0,0.0,0.0,0.0,0.0,0.0,0.0,True,hexagonal,6/mmm,194,55.2204,2.6348,0.6026
O18 Te3 Yb6,3,0.0,0.0,0.0,0.7778,0.0,0.2222,0.1111,0.0,0.2222,0.0,-0.8889,3.44,1.4125,1.15,0.4963,6.0,2.4944,True,trigonal,32,150,14.6773,7.1612,1.7745
B8 Co4 Nb4,3,0.0,0.0,0.0,0.0,0.0,0.0,0.5,0.0,0.0,0.5,3.25,0.44,0.1797,0.6,0.2773,3.0,1.299,True,orthorhombic,mmm,62,9.677,7.4413,0.3852
Na12 S8 Zn2,3,0.0,0.5455,0.0,0.0,0.0,0.0,0.0,0.0,0.0,0.0909,-0.0,1.65,0.7709,0.8,0.3755,1.0,0.2875,True,hexagonal,6mm,186,22.0426,2.271,1.2938
Fe2 Ge2 Pr1,3,0.0,0.0,0.0,0.0,0.0,0.2,0.4,0.0,0.2,0.4,-0.2,0.88,0.3261,0.6,0.2205,4.0,1.6,True,tetragonal,4/mmm,139,17.7917,7.4269,0.6619
O80 P20 Rb12 Ti12,4,0.0,0.0968,0.0,0.6452,0.0,0.0,0.0,0.0,0.0,0.0968,-1.2903,2.62,0.9259,1.75,0.5359,3.0,1.0016,True,orthorhombic,mm2,29,14.4024,3.2538,0.3424
Cs6 Hg40,2,0.0,0.1304,0.0,0.0,0.0,0.0,0.0,0.0,0.0,0.8696,1.0,1.21,0.4075,1.1,0.3705,0.0,0.0,True,cubic,m-3m,223,34.4107,9.2537,1.0
Au3 Rb3 Sb2,3,0.0,0.375,0.0,0.0,0.0,0.0,0.25,0.0,0.0,0.375,0.75,1.72,0.7618,1.0,0.4664,1.0,0.4841,True,trigonal,-3m,166,35.2428,6.4245,1.0
Al2 Hg1 Se4,3,0.0,0.0,0.0,0.5714,0.0,0.0,0.0,0.0,0.0,0.1429,-0.1429,0.94,0.4185,0.35,0.1191,3.0,0.9258,True,tetragonal,-4,82,26.9836,5.0145,0.8567
C4,1,0.0,0.0,0.0,0.0,0.0,0.0,0.0,0.0,0.0,0.0,-4.0,0.0,0.0,0.0,0.0,0.0,0.0,True,hexagonal,6/mmm,194,10.2844,1.9393,0.3162
Al4 Co2 O8,3,0.0,0.0,0.0,0.5714,0.0,0.0,0.0,0.0,0.0,0.1429,0.0,1.83,0.8651,0.75,0.3396,2.0,0.7284,True,cubic,m-3m,227,9.7788,4.2912,1.0
Ba2 Mn2 O6,3,0.0,0.0,0.2,0.6,0.0,0.0,0.0,0.0,0.0,0.2,-0.4,2.55,1.1074,1.55,0.6226,4.0,1.6,True,hexagonal,6/mmm,194,14.4852,5.5086,1.162
Cl36 S4 U4,3,0.0909,0.0,0.0,0.0,0.8182,0.0,0.0,0.0,0.0909,0.0,-0.4545,1.78,0.5221,0.75,0.2156,6.0,1.7249,True,orthorhombic,222,19,32.8817,2.7049,0.9538
Cu2 K2 Pd2 Se10,4,0.0,0.125,0.0,0.625,0.0,0.0,0.0,0.0,0.0,0.25,-0.625,1.73,0.5708,1.05,0.3398,1.0,0.3307,True,monoclinic,2/m,11,25.7516,4.8674,0.6897
Ga1 Li1 Mg2,3,0.0,0.25,0.5,0.0,0.0,0.0,0.0,0.0,0.0,0.0,2.0,0.83,0.2965,0.2,0.082,2.0,0.7071,True,cubic,m-3m,225,18.6226,2.7926,1.0
Co1 Zr1,2,0.0,0.0,0.0,0.0,0.0,0.0,0.0,0.0,0.0,1.0,3.0,0.55,0.275,0.2,0.1,1.0,0.5,True,cubic,m-3m,221,16.2704,7.6624,1.0
B4 Re2 Ti4,3,0.0,0.0,0.0,0.0,0.0,0.0,0.4,0.0,0.0,0.6,3.6,0.5,0.2279,0.55,0.2619,4.0,1.4967,True,tetragonal,4/mmm,127,11.2487,8.9624,0.5343
Cu1 In1 Ta2 Te4,4,0.0,0.0,0.0,0.5,0.0,0.0,0.5,0.0,0.0,0.375,0.875,0.6,0.2481,0.2,0.0559,2.0,0.5995,True,tetragonal,-42m,121,33.5497,6.5003,0.8403
K12 Sb4 Se12,3,0.0,0.4286,0.0,0.4286,0.0,0.0,0.1429,0.0,0.0,0.0,-0.8571,1.73,0.811,1.05,0.4924,1.0,0.3499,True,cubic,23,198,35.5073,3.1797,1.0
Se12 Ta4,2,0.0,0.0,0.0,0.75,0.0,0.0,0.0,0.0,0.0,0.25,-0.25,1.05,0.4547,0.3,0.1299,2.0,0.866,True,monoclinic,2/m,11,23.8215,7.2814,0.3215
Cl6 K2 Pd1,3,0.0,0.2222,0.0,0.0,0.6667,0.0,0.0,0.0,0.0,0.1111,-0.2222,2.34,0.9625,1.2,0.4909,2.0,0.6849,True,cubic,m-3m,225,27.6847,2.648,1.0
C4 Mo8,2,0.0,0.0,0.0,0.0,0.0,0.0,0.0,0.0,0.0,0.6667,1.3333,0.39,0.1838,0.75,0.3536,3.0,1.4142,True,orthorhombic,mmm,60,12.6181,8.944,0.7824
O24 P6 S1 Sr10,4,0.0,0.0,0.2439,0.5854,0.0,0.0,0.0,0.0,0.0,0.0,-1.1707,2.49,1.0492,1.4,0.5809,3.0,1.2456,True,trigonal,-3,147,15.1801,3.9436,1.363
Ge2 Mn2 Sr1,3,0.0,0.0,0.2,0.0,0.0,0.0,0.4,0.0,0.0,0.4,-0.4,1.06,0.3906,0.75,0.2782,1.0,0.4,True,tetragonal,4/mmm,139,19.2085,5.9265,0.6332
Er1 O6 Re1 Sr2,4,0.0,0.0,0.2,0.6,0.0,0.1,0.0,0.0,0.1,0.1,-0.1,2.49,1.0958,1.4,0.5997,6.0,2.1071,True,cubic,m-3m,225,14.3407,7.2336,1.0
P10 Y2,2,0.0,0.0,0.0,0.0,0.0,0.0,0.0,0.0,0.0,0.1667,-2.0,0.97,0.3615,0.8,0.2981,2.0,0.7454,True,monoclinic,2/m,11,20.4583,3.2977,0.5254
Ca4 S16 Y8,3,0.0,0.0,0.1429,0.0,0.0,0.0,0.0,0.0,0.0,0.2857,0.0,1.58,0.7126,0.8,0.3959,2.0,0.8806,True,orthorhombic,mmm,62,23.981,3.4241,0.2966
Ca1 Te1,2,0.0,0.0,0.5,0.5,0.0,0.0,0.5,0.0,0.0,0.0,0.0,1.1,0.55,0.4,0.2,1.0,0.5,True,cubic,m-3m,221,30.2578,4.6011,1.0
Ba1 O3 Ti1,3,0.0,0.0,0.2,0.6,0.0,0.0,0.0,0.0,0.0,0.2,0.0,2.55,1.1092,1.55,0.6226,4.0,1.6,True,orthorhombic,mm2,38,13.555,5.7134,0.9672
Cu3 Ti2,2,0.0,0.0,0.0,0.0,0.0,0.0,0.0,0.0,0.0,1.0,2.8,0.36,0.1764,0.05,0.0245,0.0,0.0,True,tetragonal,4/mmm,139,13.898,6.8432,0.4219
Ag1 O2 Yb1,3,0.0,0.0,0.0,0.5,0.0,0.25,0.0,0.0,0.25,0.25,0.0,3.44,1.4132,1.15,0.5401,6.0,2.4875,True,trigonal,-3m,166,16.5128,7.8665,1.0
Ho2 O8 V2,3,0.0,0.0,0.0,0.6667,0.0,0.1667,0.0,0.0,0.1667,0.1667,0.0,2.21,0.9545,1.15,0.4625,6.0,2.2111,True,tetragonal,4/mmm,141,13.6214,5.6863,1.0
Li8 O6 Tb1,3,0.0,0.5333,0.0,0.4,0.0,0.0667,0.0,0.0,0.0667,0.0,-0.0667,3.44,1.2809,1.15,0.4389,6.0,1.4967,True,trigonal,-3,148,9.9305,3.4608,1.0
Li1 P1 Zn1,3,0.0,0.3333,0.0,0.0,0.0,0.0,0.0,0.0,0.0,0.3333,0.0,1.21,0.4949,0.45,0.1929,2.0,0.8165,True,cubic,-43m,216,15.9071,3.5953,1.0
Al12 W3,2,0.0,0.0,0.0,0.0,0.0,0.0,0.0,0.0,0.0,0.2,3.2,0.75,0.3,0.1,0.04,3.0,1.2,True,monoclinic,m,8,16.215,5.9758,0.5638
In4 Te4,2,0.0,0.0,0.0,0.5,0.0,0.0,0.5,0.0,0.0,0.0,0.5,0.32,0.16,0.15,0.075,0.0,0.0,True,tetragonal,4/mmm,140,33.619,5.9869,1.0
Cl6 H24 O12 U2,4,0.0455,0.0,0.0,0.2727,0.1364,0.0,0.0,0.0,0.0455,0.0,-0.9545,2.06,0.6238,1.5,0.3764,8.0,1.7032,True,monoclinic,2/m,13,11.9578,2.8561,0.6833
K4 Nd4 O32 S8,4,0.0,0.0833,0.0,0.6667,0.0,0.0833,0.0,0.0,0.0833,0.0,-1.3333,2.62,0.911,1.6,0.527,6.0,1.675,True,monoclinic,2/m,14,14.3494,3.6208,0.6743
La1 Rh2 Si2,3,0.0,0.0,0.0,0.0,0.0,0.2,0.4,0.0,0.2,0.6,0.2,1.18,0.4309,0.85,0.3108,5.0,1.833,True,tetragonal,4/mmm,139,17.7916,7.4832,0.6968
Ba4 In4 O10,3,0.0,0.0,0.2222,0.5556,0.0,0.0,0.0,0.0,0.0,0.0,-0.0,2.55,1.0872,1.55,0.6525,4.0,1.7708,True,orthorhombic,mm2,46,17.732,6.0796,0.6374
Cu2 Er2 Pb2,3,0.0,0.0,0.0,0.0,0.0,0.3333,0.0,0.0,0.3333,0.3333,2.3333,1.09,0.4483,0.45,0.2014,4.0,1.633,True,hexagonal,6mm,186,22.3221,10.861,0.6279
Mo4 O24 Tb8,3,0.0,0.0,0.0,0.6667,0.0,0.2222,0.0,0.0,0.2222,0.1111,-0.2222,3.44,1.4106,1.15,0.5017,6.0,2.4944,True,monoclinic,2/m,15,13.2627,7.0919,0.5432
La2 O6 Tl2,3,0.0,0.0,0.0,0.6,0.0,0.2,0.0,0.0,0.2,0.2,-0.4,2.34,1.0322,1.35,0.6493,6.0,2.5298,True,hexagonal,6mm,186,15.8822,8.1821,0.288
Ac1 H2,2,0.3333,0.0,0.0,0.0,0.0,0.0,0.0,0.0,0.3333,0.3333,0.3333,1.1,0.5185,1.7,0.8014,8.0,3.7712,True,cubic,m-3m,225,17.1294,7.4003,1.0
Ag17 Mg54,2,0.0,0.0,0.7606,0.0,0.0,0.0,0.0,0.0,0.0,0.2394,1.7606,0.62,0.2646,0.1,0.0427,2.0,0.8535,True,orthorhombic,mmm,71,20.8767,3.5247,1.0
Br1 Cs1 O3,3,0.0,0.2,0.0,0.6,0.2,0.0,0.0,0.0,0.0,0.0,-1.2,2.65,1.0289,2.0,0.7749,4.0,1.6,True,trigonal,3m,160,21.9613,3.944,1.0
Gd1 Ni2 Si2,3,0.0,0.0,0.0,0.0,0.0,0.2,0.4,0.0,0.2,0.4,-0.2,0.71,0.282,0.7,0.2557,5.0,1.8547,True,tetragonal,4/mmm,139,15.1762,7.2392,0.7199
Cu2 Pb2 Y2,3,0.0,0.0,0.0,0.0,0.0,0.0,0.0,0.0,0.0,0.6667,2.3333,1.11,0.457,0.45,0.2121,2.0,0.8165,True,hexagonal,6mm,186,22.9233,8.6843,0.6265
Cd2 Mg2,2,0.0,0.0,0.5,0.0,0.0,0.0,0.0,0.0,0.0,0.5,2.0,0.38,0.19,0.05,0.025,2.0,1.0,True,orthorhombic,mmm,51,21.649,5.2433,0.6089
Au4 Br16 K4,3,0.0,0.1667,0.0,0.0,0.6667,0.0,0.0,0.0,0.0,0.1667,0.0,2.14,0.7814,1.05,0.3834,2.0,0.7454,True,monoclinic,2/m,14,35.767,4.2997,0.5216
O14 P8 S2,3,0.0,0.0,0.0,0.5833,0.0,0.0,0.0,0.0,0.0,0.0,-2.3333,1.25,0.5865,0.4,0.1972,1.0,0.493,True,triclinic,-1,2,18.1222,2.0461,0.8475
Ca4 F8,2,0.0,0.0,0.3333,0.0,0.6667,0.0,0.0,0.0,0.0,0.0,0.0,2.98,1.4048,1.3,0.6128,2.0,0.9428,True,orthorhombic,mmm,62,12.9257,3.3434,0.5145
Ca1 In1,2,0.0,0.0,0.5,0.0,0.0,0.0,0.0,0.0,0.0,0.0,2.5,0.78,0.39,0.25,0.125,1.0,0.5,True,cubic,m-3m,221,28.8499,4.4577,1.0
Al32 Co8 Yb4,3,0.0,0.0,0.0,0.0,0.0,0.0909,0.0,0.0,0.0909,0.1818,2.8182,1.88,0.4893,0.5,0.1432,5.0,1.4316,True,orthorhombic,mmm,55,16.1469,4.7377,0.275
F8 O4 Pb8,3,0.0,0.0,0.0,0.2,0.4,0.0,0.0,0.0,0.0,0.0,0.0,1.65,0.7467,1.3,0.6216,4.0,1.9596,True,tetragonal,4/mmm,137,20.327,7.6528,0.6973
In16 Se32 Sr8,3,0.0,0.0,0.1429,0.5714,0.0,0.0,0.0,0.0,0.0,0.0,0.0,1.6,0.5778,0.85,0.3056,1.0,0.4949,True,orthorhombic,mmm,70,30.6263,4.9037,0.9987
B16 Li4 O40 Sc4 Sr8,5,0.0,0.0556,0.1111,0.5556,0.0,0.0,0.2222,0.0,0.0,0.0556,-0.0,2.49,0.9977,1.4,0.4784,3.0,1.0123,True,monoclinic,2/m,14,11.5421,3.4398,0.3802
Ba2 Nb4 O12,3,0.0,0.0,0.1111,0.6667,0.0,0.0,0.0,0.0,0.0,0.2222,0.0,2.55,0.9978,1.55,0.5451,4.0,1.5947,True,monoclinic,2/m,14,14.6071,5.2942,0.3756
Na24 O32 P8,3,0.0,0.375,0.0,0.5,0.0,0.0,0.0,0.0,0.0,0.0,-1.0,2.51,1.1633,1.2,0.5568,1.0,0.5,True,tetragonal,-42m,114,12.8686,2.6443,0.6285
Al4 O24 S6,3,0.0,0.0,0.0,0.7059,0.0,0.0,0.0,0.0,0.0,0.0,-1.4118,1.83,0.6243,0.65,0.2373,1.0,0.4556,True,trigonal,-3,148,12.1881,2.7421,1.0
Br2 Lu2 S2,3,0.0,0.0,0.0,0.0,0.3333,0.3333,0.0,0.0,0.3333,0.0,0.0,1.69,0.7239,0.75,0.324,3.0,1.2472,True,orthorhombic,mmm,59,33.8712,4.689,0.4062
O48 P16 Sb4,3,0.0,0.0,0.0,0.7059,0.0,0.0,0.0588,0.0,0.0,0.0,-2.2941,1.39,0.5831,0.85,0.2437,3.0,0.7715,True,orthorhombic,222,20,14.7881,2.8908,0.4435
F8 Pd4,2,0.0,0.0,0.0,0.0,0.6667,0.0,0.0,0.0,0.0,0.3333,0.0,1.78,0.8391,0.9,0.4243,3.0,1.4142,True,cubic,m-3,205,12.9041,6.1946,1.0
Br24 Ga6 K6,3,0.0,0.1667,0.0,0.0,0.6667,0.0,0.0,0.0,0.0,0.0,0.0,2.14,0.8264,1.05,0.3841,0.0,0.0,True,trigonal,3m,161,38.5668,3.0745,1.0
Er4 Rh4 Si4,3,0.0,0.0,0.0,0.0,0.0,0.3333,0.3333,0.0,0.3333,0.3333,0.6667,1.04,0.4297,0.65,0.2677,5.0,2.0548,True,orthorhombic,mmm,62,17.8285,9.2596,0.571
Co4 Nb4 Te8,3,0.0,0.0,0.0,0.5,0.0,0.0,0.5,0.0,0.0,0.5,0.75,0.5,0.2054,0.1,0.0354,1.0,0.433,True,orthorhombic,mmm,64,23.8344,7.0896,0.7407
Ge1 Li1 Rh2,3,0.0,0.25,0.0,0.0,0.0,0.0,0.25,0.0,0.0,0.5,0.75,1.3,0.5354,0.2,0.0707,3.0,1.2247,True,cubic,m-3m,225,13.038,9.087,1.0
Ga4 Pt4 Tb4,3,0.0,0.0,0.0,0.0,0.0,0.3333,0.0,0.0,0.3333,0.3333,2.6667,2.28,0.9829,0.45,0.2014,4.0,1.633,True,orthorhombic,mmm,62,19.8981,11.7871,0.5797
Ca2 In8 Ir2,3,0.0,0.0,0.1667,0.0,0.0,0.0,0.0,0.0,0.0,0.1667,2.8333,1.2,0.3567,0.45,0.1304,2.0,0.5774,True,orthorhombic,mmm,51,23.9042,8.0068,0.4888
K4 Mo4 O28 P8,4,0.0,0.0909,0.0,0.6364,0.0,0.0,0.0,0.0,0.0,0.0909,-1.3636,2.62,0.8477,1.6,0.4901,3.0,0.9791,True,monoclinic,2/m,14,14.9002,3.1304,0.7127
Cs2 Hf1 I6,3,0.0,0.2222,0.0,0.0,0.6667,0.0,0.0,0.0,0.0,0.1111,0.0,1.87,0.8133,1.2,0.4922,1.0,0.4714,True,cubic,m-3m,225,48.0546,4.6294,1.0
Hg8 O14 P4,3,0.0,0.0,0.0,0.5385,0.0,0.0,0.0,0.0,0.0,0.3077,-1.2308,1.44,0.689,0.9,0.3991,4.0,1.7776,True,monoclinic,2/m,13,17.5689,7.0982,0.5206
As2 Mn2 V2,3,0.0,0.0,0.0,0.0,0.0,0.0,0.3333,0.0,0.0,0.6667,1.3333,0.63,0.28,0.25,0.108,0.0,0.0,True,tetragonal,4/mmm,129,14.5125,6.8959,0.5661
Sn2 Ti4,2,0.0,0.0,0.0,0.0,0.0,0.0,0.0,0.0,0.0,0.6667,1.3333,0.42,0.198,0.05,0.0236,1.0,0.4714,True,hexagonal,6/mmm,194,18.3981,6.4516,0.8425
In2 K4 Na2 P4,4,0.0,0.5,0.0,0.0,0.0,0.0,0.0,0.0,0.0,0.0,-0.0,1.37,0.6148,1.2,0.4964,2.0,0.7454,True,orthorhombic,mmm,72,28.0332,2.7441,0.7533
Ho4 O12 Sc4,3,0.0,0.0,0.0,0.6,0.0,0.2,0.0,0.0,0.2,0.2,0.0,2.21,1.0516,1.15,0.5288,6.0,2.3324,True,orthorhombic,mmm,62,12.4239,6.8936,0.6832
La6 O14 Ru2,3,0.0,0.0,0.0,0.6364,0.0,0.2727,0.0,0.0,0.2727,0.3636,-0.1818,2.34,1.0341,1.35,0.5959,6.0,2.6442,True,orthorhombic,mmm,63,14.7533,6.444,0.8759
Fe2 S10 U4,3,0.25,0.0,0.0,0.0,0.0,0.0,0.0,0.0,0.25,0.125,0.5,1.2,0.5247,0.75,0.3228,6.0,2.5464,True,monoclinic,2/m,15,18.6959,7.6853,0.7639
C2 Cl36 W12,3,0.0,0.0,0.0,0.0,0.72,0.0,0.0,0.0,0.0,0.24,0.08,0.8,0.3488,0.65,0.1668,4.0,1.3182,True,hexagonal,-6m2,190,28.1135,4.1422,0.5131
Br12 Cs8 Pb2,3,0.0,0.3636,0.0,0.0,0.5455,0.0,0.0,0.0,0.0,0.0,0.0,2.17,1.0159,1.45,0.6776,2.0,0.9959,True,trigonal,-3m,167,45.969,4.0006,1.0
Li1 O7 P2 V1,4,0.0,0.0909,0.0,0.6364,0.0,0.0,0.0,0.0,0.0,0.0909,-1.2727,2.46,0.8679,0.85,0.3135,2.0,0.6428,True,monoclinic,2,5,11.0166,3.1766,1.1623
B2 Mo1,2,0.0,0.0,0.0,0.0,0.0,0.0,0.6667,0.0,0.0,0.3333,3.3333,0.12,0.0566,0.6,0.2828,3.0,1.4142,True,hexagonal,6/mmm,191,8.8796,7.3283,0.9048
Al4 Sm1,2,0.0,0.0,0.0,0.0,0.0,0.2,0.0,0.0,0.2,0.0,3.0,0.44,0.176,0.6,0.24,5.0,2.0,True,tetragonal,4/mmm,139,20.4617,4.1922,0.6559
O18 Si6 Sr6,3,0.0,0.0,0.2,0.6,0.0,0.0,0.2,0.0,0.0,0.0,-1.6,2.49,1.0318,1.4,0.5455,3.0,1.1662,True,triclinic,-1,2,14.6758,3.7045,0.7149
Cu4 Rb4 S8 Sn2,4,0.0,0.2222,0.0,0.0,0.0,0.0,0.0,0.0,0.0,0.2222,-0.6667,1.76,0.6785,1.35,0.5213,2.0,0.8749,True,orthorhombic,mmm,72,24.8006,4.0545,0.5775
Cl8 Mn1 Na6,3,0.0,0.4,0.0,0.0,0.5333,0.0,0.0,0.0,0.0,0.0667,0.0,2.23,1.0786,0.8,0.3827,1.0,0.2494,True,cubic,m-3m,225,24.1278,2.1863,1.0
Al1 B2 Mn2,3,0.0,0.0,0.0,0.0,0.0,0.0,0.4,0.0,0.0,0.4,2.6,0.49,0.2313,0.55,0.251,2.0,0.8944,True,orthorhombic,mmm,65,9.0959,5.7864,0.4948
Ge6 Lu4 Rh7,3,0.0,0.0,0.0,0.0,0.0,0.2353,0.3529,0.0,0.2353,0.4118,0.5294,1.01,0.3936,0.5,0.1942,2.0,0.7579,True,cubic,m-3m,229,16.9648,10.6866,1.0
Ca3 In1,2,0.0,0.0,0.75,0.0,0.0,0.0,0.0,0.0,0.0,0.0,2.25,0.78,0.3377,0.25,0.1083,1.0,0.433,True,cubic,m-3m,225,32.8748,2.9682,1.0
Ba2 La2 O12 W2 Zn1,5,0.0,0.0,0.1053,0.6316,0.0,0.1053,0.0,0.0,0.1053,0.2632,-0.2105,2.55,1.0149,1.55,0.595,6.0,2.208,True,trigonal,-3m,166,13.4842,7.6321,1.0
Pt3 Sn3 Yb3,3,0.0,0.0,0.0,0.0,0.0,0.3333,0.0,0.0,0.3333,0.3333,0.3333,2.28,1.0079,0.4,0.17,3.0,1.2472,True,hexagonal,-6m2,189,22.0157,12.2398,1.8435
Bi1 Se2 Tl1,3,0.0,0.0,0.0,0.5,0.0,0.0,0.0,0.0,0.0,0.0,0.0,0.93,0.3914,0.75,0.3182,2.0,1.0,True,trigonal,-3m,166,30.8138,7.6965,1.0
Ba4 Na4 O36 P12,4,0.0,0.0714,0.0714,0.6429,0.0,0.0,0.0,0.0,0.0,0.0,-1.7143,2.55,0.9237,1.55,0.4787,4.0,1.0498,True,orthorhombic,222,19,14.8407,3.1748,0.4725
Au6 Cd18,2,0.0,0.0,0.0,0.0,0.0,0.0,0.0,0.0,0.0,1.0,2.25,0.85,0.3681,0.2,0.0866,1.0,0.433,True,hexagonal,6mm,185,21.8628,10.1435,0.9491
P16 S48 Tl32,3,0.0,0.0,0.0,0.0,0.0,0.0,0.0,0.0,0.0,0.0,-1.1667,0.96,0.4293,0.9,0.4243,3.0,1.4142,True,orthorhombic,mmm,61,28.448,5.2138,0.6998
Cu12 S12 Sb4,3,0.0,0.0,0.0,0.0,0.0,0.0,0.1429,0.0,0.0,0.4286,-0.4286,0.68,0.3217,0.45,0.1884,2.0,0.6999,True,orthorhombic,222,19,19.4296,4.9886,0.637
Pb3 Y1,2,0.0,0.0,0.0,0.0,0.0,0.0,0.0,0.0,0.0,0.25,2.25,1.11,0.4806,0.0,0.0,1.0,0.433,True,cubic,m-3m,221,29.5208,9.9915,1.0
Al2 Hg1 S4,3,0.0,0.0,0.0,0.0,0.0,0.0,0.0,0.0,0.0,0.1429,-0.1429,0.97,0.4328,0.5,0.1821,3.0,1.0498,True,tetragonal,-4,82,23.3918,3.8822,0.8642
Ag2 Sn2 Tm2,3,0.0,0.0,0.0,0.0,0.0,0.3333,0.0,0.0,0.3333,0.3333,0.0,0.71,0.3279,0.3,0.1225,3.0,1.4142,True,hexagonal,6mm,186,23.5379,9.3008,0.6428
N12 O6 Si12,3,0.0,0.0,0.0,0.2,0.0,0.0,0.4,0.0,0.0,0.0,-3.2,1.54,0.6407,0.5,0.2293,1.0,0.4899,True,monoclinic,2/m,15,8.1495,4.0827,0.3654
B24 O48 Sr12,3,0.0,0.0,0.1429,0.5714,0.0,0.0,0.2857,0.0,0.0,0.0,0.0,2.49,0.9352,1.4,0.4735,3.0,1.0498,True,cubic,m-3,205,9.6304,4.2673,1.0
Ge2 Li4 O6,3,0.0,0.3333,0.0,0.5,0.0,0.0,0.1667,0.0,0.0,0.0,-1.3333,2.46,1.1126,0.85,0.3973,2.0,0.7454,True,orthorhombic,mm2,36,11.0982,3.3545,0.8813
Na2 Nd16 Se24,3,0.0,0.0476,0.0,0.5714,0.0,0.381,0.0,0.0,0.381,0.0,0.0476,1.62,0.7106,0.7,0.3438,5.0,1.9909,True,tetragonal,-42m,122,25.6658,6.5452,2.6011
Eu1 Mn2 P2,3,0.0,0.0,0.0,0.0,0.0,0.2,0.0,0.0,0.2,0.4,0.0,2.19,0.8009,0.85,0.3156,5.0,1.8547,True,trigonal,-3m,164,16.6955,6.4408,0.5539
Mg4 Sn4 Sr4,3,0.0,0.0,0.6667,0.0,0.0,0.0,0.0,0.0,0.0,0.0,0.0,1.01,0.418,0.55,0.2483,2.0,0.9428,True,orthorhombic,mmm,62,30.0859,4.2432,0.5483
K6 Nb6 O26 Si4,4,0.0,0.1429,0.0,0.619,0.0,0.0,0.0952,0.0,0.0,0.1429,-0.7619,2.62,1.0372,1.6,0.5785,3.0,1.1389,True,hexagonal,-6m2,189,14.0086,3.7265,1.1679
Cs1 Nd1 Te2,3,0.0,0.25,0.0,0.5,0.0,0.25,0.5,0.0,0.25,0.0,0.0,1.31,0.5808,1.2,0.4904,3.0,1.2247,True,trigonal,-3m,166,42.5145,5.1981,1.0
Cs4 I16 Tl4,3,0.0,0.1667,0.0,0.0,0.6667,0.0,0.0,0.0,0.0,0.0,-0.3333,1.87,0.7265,1.2,0.4488,1.0,0.4714,True,monoclinic,2/m,14,52.8707,4.4227,0.3932
Cl6 Ir2,2,0.0,0.0,0.0,0.0,0.75,0.0,0.0,0.0,0.0,0.25,0.0,0.96,0.4157,0.35,0.1516,3.0,1.299,True,monoclinic,2/m,12,25.35,4.8895,0.9428
O24 P16 S4,3,0.0,0.0,0.0,0.5455,0.0,0.0,0.0,0.0,0.0,0.0,-2.3636,1.25,0.593,0.4,0.1992,1.0,0.4979,True,monoclinic,2/m,14,19.4527,1.9553,0.8227
Al4 Fe6 Si6,3,0.0,0.0,0.0,0.0,0.0,0.0,0.375,0.0,0.0,0.375,0.0,0.29,0.1145,0.3,0.1299,1.0,0.4841,True,triclinic,-1,2,12.2904,5.1638,0.6171
Cr1 Li1 O2,3,0.0,0.25,0.0,0.5,0.0,0.0,0.0,0.0,0.0,0.25,0.0,2.46,1.0869,0.85,0.4129,2.0,0.866,True,trigonal,-3m,166,9.2783,4.0687,1.0
Cu2 Ho2 Si2,3,0.0,0.0,0.0,0.0,0.0,0.3333,0.3333,0.0,0.3333,0.3333,0.3333,0.67,0.3158,0.65,0.2677,5.0,2.1602,True,hexagonal,6/mmm,194,18.3281,7.7482,0.5585
O8 Rb3 Ta1,3,0.0,0.25,0.0,0.6667,0.0,0.0,0.0,0.0,0.0,0.0833,-0.6667,2.62,1.1674,1.75,0.7533,4.0,1.5523,True,tetragonal,-42m,121,17.8204,4.39,1.0
Al48 Ca72 O144,3,0.0,0.0,0.2727,0.5455,0.0,0.0,0.0,0.0,0.0,0.0,0.0,2.44,1.1119,1.2,0.5207,2.0,0.8624,True,cubic,m-3,205,13.8583,2.9432,1.0
Er2 O3,2,0.0,0.0,0.0,0.6,0.0,0.4,0.0,0.0,0.4,0.0,0.0,2.2,1.0778,1.15,0.5634,6.0,2.9394,True,trigonal,-3m,164,13.3476,9.5176,0.6232
Cl30 W6,2,0.0,0.0,0.0,0.0,0.8333,0.0,0.0,0.0,0.0,0.1667,-0.1667,0.8,0.2981,0.35,0.1304,3.0,1.118,True,monoclinic,2/m,12,31.6419,3.1584,0.5011
B2 O40 P10 Sr12,4,0.0,0.0,0.1875,0.625,0.0,0.0,0.0313,0.0,0.0,0.0,-1.25,2.49,0.9847,1.4,0.5326,3.0,1.152,True,tetragonal,-42m,120,14.714,3.5669,0.8318
Ca4 In4 Rh4,3,0.0,0.0,0.3333,0.0,0.0,0.0,0.0,0.0,0.0,0.3333,2.6667,1.28,0.5267,0.45,0.1841,1.0,0.4714,True,orthorhombic,mmm,62,22.4208,6.3645,0.5204
Lu2 Ni4,2,0.0,0.0,0.0,0.0,0.0,0.3333,0.0,0.0,0.3333,0.6667,2.3333,0.64,0.3017,0.4,0.1886,2.0,0.9428,True,cubic,m-3m,227,14.6351,11.0571,1.0
Nd2 Ni4,2,0.0,0.0,0.0,0.0,0.0,0.3333,0.0,0.0,0.3333,0.6667,2.3333,0.77,0.363,0.5,0.2357,4.0,1.8856,True,cubic,m-3m,227,16.2278,8.9239,1.0
Br2 C2 N2,3,0.0,0.0,0.0,0.0,0.3333,0.0,0.0,0.0,0.0,0.0,-2.6667,0.49,0.2146,0.5,0.2248,2.0,0.9428,True,orthorhombic,mmm,59,27.0679,2.166,0.6916
F3 K1 Zn1,3,0.0,0.2,0.0,0.0,0.6,0.0,0.0,0.0,0.0,0.2,0.0,3.16,1.3701,1.7,0.68,2.0,0.9798,True,cubic,m-3m,221,14.1052,3.8026,1.0
B24 Ca8 O44,3,0.0,0.0,0.1053,0.5789,0.0,0.0,0.3158,0.0,0.0,0.0,-0.0,2.44,0.8701,1.2,0.3594,2.0,0.6138,True,monoclinic,2/m,14,10.0431,2.7935,0.8096
As8 Ni4,2,0.0,0.0,0.0,0.0,0.0,0.0,0.6667,0.0,0.0,0.3333,-1.3333,0.27,0.1273,0.2,0.0943,0.0,0.0,True,cubic,m-3,205,16.1524,7.1462,1.0
B6 Eu2 O12,3,0.0,0.0,0.0,0.6,0.0,0.1,0.3,0.0,0.1,0.0,-0.1,3.44,1.0898,1.25,0.3674,6.0,1.8,True,monoclinic,2/m,15,10.4541,4.4538,1.004
Al1 Co2 Nd2,3,0.0,0.0,0.0,0.0,0.0,0.4,0.0,0.0,0.4,0.4,2.6,0.74,0.3333,0.6,0.2638,5.0,2.1541,True,orthorhombic,mmm,71,19.9663,7.2078,0.7166
K2 Sb2 Zn2,3,0.0,0.3333,0.0,0.0,0.0,0.0,0.3333,0.0,0.0,0.3333,-0.0,1.23,0.5123,0.85,0.3793,1.0,0.4714,True,hexagonal,6/mmm,194,32.4845,3.8554,0.4269
Cr4 O36 P12,3,0.0,0.0,0.0,0.6923,0.0,0.0,0.0,0.0,0.0,0.0769,-1.8462,1.78,0.6507,0.8,0.25,2.0,0.6249,True,triclinic,-1,2,13.4694,2.7398,1.0164
Cs4 F12 Ga2 K1 Li1,5,0.0,0.3,0.0,0.0,0.6,0.0,0.0,0.0,0.0,0.0,0.0,3.19,1.4501,2.1,0.8577,4.0,1.6093,True,trigonal,-3m,166,18.6686,4.2032,1.0
Cd6 Y2,2,0.0,0.0,0.0,0.0,0.0,0.0,0.0,0.0,0.0,1.0,2.25,0.47,0.2035,0.25,0.1083,0.0,0.0,True,orthorhombic,mmm,63,24.0814,7.3461,0.7485