formula,numberOfSpecies,fracActinoid,fracAlkali,fracAlkaline,fracChalcogen,fracHalogen,fracLanthanoid,fracMetalloid,fracNobleGas,fracRareEarth,fracTransitionMetal,electronsPerAtom,electronegativityRange,electronegativityStd,radiiRange,radiiStd,rowRange,rowStd,ordered,crystalSystem,pointGroup,spaceGroupNumber,volumePerSite,density,c_a
Cu3 Mg3 Y3,3,0.0,0.0,0.3333,0.0,0.0,0.0,0.0,0.0,0.0,0.6667,2.3333,0.68,0.3016,0.45,0.1871,2.0,0.8165,True,hexagonal,-6m2,189,21.438,4.5637,1.8944
Fe4 P4,2,0.0,0.0,0.0,0.0,0.0,0.0,0.0,0.0,0.0,0.5,-0.5,0.36,0.18,0.4,0.2,1.0,0.5,True,orthorhombic,mmm,62,11.3129,6.3717,0.53
C1 Ti3 Tl1,3,0.0,0.0,0.0,0.0,0.0,0.0,0.0,0.0,0.0,0.6,1.8,1.01,0.3972,1.2,0.3826,4.0,1.2649,True,cubic,m-3m,221,15.4678,7.7294,1.0
Co6 Li6 O32 P8,4,0.0,0.1154,0.0,0.6154,0.0,0.0,0.0,0.0,0.0,0.1154,-1.3462,2.46,0.8882,0.85,0.3351,2.0,0.6837,True,monoclinic,2/m,14,11.304,3.2629,1.7532
Fe3 S4,2,0.0,0.0,0.0,0.0,0.0,0.0,0.0,0.0,0.0,0.4286,-0.2857,0.75,0.3712,0.4,0.1979,1.0,0.4949,True,trigonal,-3m,166,15.37,4.5653,1.0
Br4 Li2 Mn1,3,0.0,0.2857,0.0,0.0,0.5714,0.0,0.0,0.0,0.0,0.1429,0.0,1.98,0.9031,0.3,0.1411,2.0,0.9035,True,orthorhombic,mmm,65,24.4315,3.7715,0.5699
La5 S8 Tl1,3,0.0,0.0,0.0,0.0,0.0,0.3571,0.0,0.0,0.3571,0.3571,0.0,1.48,0.7011,0.95,0.4662,5.0,2.3604,True,tetragonal,-4,82,24.5668,5.5785,1.0
Cl2 Ho2 O2,3,0.0,0.0,0.0,0.3333,0.3333,0.3333,0.0,0.0,0.3333,0.0,0.0,2.21,0.9825,1.15,0.4767,6.0,2.6247,True,tetragonal,4/mmm,129,16.9311,7.074,0.5782
Er5 Mg24,2,0.0,0.0,0.8276,0.0,0.0,0.1724,0.0,0.0,0.1724,0.0,2.1724,0.07,0.0264,0.25,0.0944,5.0,1.8887,True,cubic,-43m,217,24.4184,3.3289,1.0
B16 Mo4 Y4,3,0.0,0.0,0.0,0.0,0.0,0.0,0.6667,0.0,0.0,0.3333,3.1667,0.94,0.3176,0.95,0.3791,3.0,1.4142,True,orthorhombic,mmm,55,10.6531,5.9255,0.3109
C12 Tm8,2,0.0,0.0,0.0,0.0,0.0,0.4,0.0,0.0,0.4,0.0,-1.2,1.3,0.6369,1.05,0.5144,6.0,2.9394,True,cubic,-43m,220,13.2384,9.3799,1.0
B34 F54,2,0.0,0.0,0.0,0.0,0.6136,0.0,0.3864,0.0,0.0,0.0,0.5455,1.94,0.9446,0.35,0.1704,0.0,0.0,True,triclinic,-1,2,14.2429,1.8462,0.5387
Ca4 Mg4 Si4,3,0.0,0.0,0.6667,0.0,0.0,0.0,0.3333,0.0,0.0,0.0,0.0,0.9,0.3733,0.7,0.2867,1.0,0.4714,True,orthorhombic,mmm,62,22.9652,2.2287,0.5321
Ba2 Br4 O12,3,0.0,0.0,0.1111,0.6667,0.2222,0.0,0.0,0.0,0.0,0.0,-1.3333,2.55,0.7884,1.55,0.4975,4.0,1.3699,True,orthorhombic,mm2,43,19.1637,3.785,0.9268
Ca10 O24 P6 Se1,4,0.0,0.0,0.2439,0.6098,0.0,0.0,0.0,0.0,0.0,0.0,-1.1707,2.44,1.0298,1.2,0.4991,2.0,0.8678,True,trigonal,-3,147,13.4402,3.1628,1.3926
La2 Mn2 O12 Sr2 Ti2,5,0.0,0.0,0.1,0.6,0.0,0.1,0.0,0.0,0.1,0.3,-0.1,2.49,1.069,1.4,0.563,6.0,1.9,True,monoclinic,m,7,12.3427,5.7222,0.733
Al4 Cl16 Na4,3,0.0,0.1667,0.0,0.0,0.6667,0.0,0.0,0.0,0.0,0.0,0.0,2.23,0.9123,0.8,0.294,0.0,0.0,True,orthorhombic,222,19,27.8643,1.9048,0.5917
La1 O12 Sb5,3,0.0,0.0,0.0,0.6667,0.0,0.0556,0.2778,0.0,0.0556,0.0556,-2.0,2.34,0.758,1.35,0.4529,6.0,1.7717,True,trigonal,-3m,166,14.6711,5.9088,1.0
Cd2 Cs2 Se6 Tb2,4,0.0,0.1667,0.0,0.5,0.0,0.1667,0.0,0.0,0.1667,0.1667,-0.0,2.55,0.9904,1.45,0.5199,4.0,1.4625,True,orthorhombic,mmm,63,33.1493,5.3526,0.3845
Ca1 Cu2 Si2,3,0.0,0.0,0.2,0.0,0.0,0.0,0.4,0.0,0.0,0.4,-0.4,0.9,0.36,0.7,0.2557,1.0,0.4899,True,tetragonal,4/mmm,139,16.3051,4.5491,0.7051
Ba2 Co8 In2 O14,4,0.0,0.0,0.0769,0.5385,0.0,0.0,0.0,0.0,0.0,0.3077,-0.0769,2.55,0.9027,1.55,0.4983,4.0,1.35,True,hexagonal,6mm,186,13.5985,5.6347,0.6103
F20 Rb4 S4,3,0.0,0.1429,0.0,0.0,0.7143,0.0,0.0,0.0,0.0,0.0,-0.8571,3.16,1.1323,1.85,0.6418,3.0,1.0498,True,orthorhombic,mmm,62,17.9423,2.8098,0.6133
B4 Fe3 Nd1 O12,4,0.0,0.0,0.0,0.6,0.0,0.05,0.2,0.0,0.05,0.15,-0.15,2.3,0.8001,1.25,0.3641,6.0,1.4283,True,trigonal,32,155,10.4668,4.3392,1.0
Pd36 Te16,2,0.0,0.0,0.0,0.3077,0.0,0.0,0.3077,0.0,0.0,0.6923,0.7692,0.1,0.0462,0.0,0.0,0.0,0.0,True,monoclinic,2/m,14,18.6457,10.0579,0.533
K8 Na16 O96 P24 Zn24,5,0.0,0.1429,0.0,0.5714,0.0,0.0,0.0,0.0,0.0,0.1429,-1.1429,2.62,0.9853,1.6,0.4862,2.0,0.7854,True,hexagonal,6,173,13.7222,3.2628,2.1579
Be6 Ge6 Mn8 O24 Se2,5,0.0,0.0,0.1304,0.5652,0.0,0.0,0.1304,0.0,0.0,0.1739,-1.0435,1.89,0.8614,0.8,0.3347,2.0,0.9526,True,cubic,-43m,218,13.9039,3.82,1.0
O8 Ti2 Zn4,3,0.0,0.0,0.0,0.5714,0.0,0.0,0.0,0.0,0.0,0.4286,0.0,1.9,0.9046,0.8,0.3797,2.0,0.9897,True,orthorhombic,mmm,74,11.2299,5.1264,1.0
Ho3 Pt3 Sn3,3,0.0,0.0,0.0,0.0,0.0,0.3333,0.0,0.0,0.3333,0.3333,0.3333,1.05,0.4394,0.4,0.17,3.0,1.2472,True,hexagonal,-6m2,189,21.7889,12.1612,1.87
Mn29,1,0.0,0.0,0.0,0.0,0.0,0.0,0.0,0.0,0.0,1.0,2.0,0.0,0.0,0.0,0.0,0.0,0.0,True,cubic,-43m,217,11.0374,8.2652,1.0
Cd8 K8 O48 S12,4,0.0,0.1053,0.0,0.6316,0.0,0.0,0.0,0.0,0.0,0.1053,-1.2632,2.62,0.8982,1.6,0.529,3.0,1.0287,True,cubic,23,198,15.1501,3.4105,1.0
Mg2 Na2 Sb2,3,0.0,0.3333,0.3333,0.0,0.0,0.0,0.3333,0.0,0.0,0.0,-0.0,1.12,0.465,0.35,0.1546,2.0,0.9428,True,tetragonal,4/mmm,129,27.9226,3.3512,0.6035
Mn4 Nd4 O12,3,0.0,0.0,0.0,0.6,0.0,0.2,0.0,0.0,0.2,0.2,-0.2,2.3,1.0345,1.25,0.5219,6.0,2.3324,True,orthorhombic,mmm,62,12.4581,6.5893,0.7172
Ca4 Cr4 O40 Si16,4,0.0,0.0,0.0625,0.625,0.0,0.0,0.25,0.0,0.0,0.0625,-1.9375,2.44,0.8615,1.2,0.3606,2.0,0.7071,True,tetragonal,4/mmm,130,13.4586,2.8101,0.4857
Ho1 Li1 Se2,3,0.0,0.25,0.0,0.5,0.0,0.25,0.0,0.0,0.25,0.0,0.0,1.57,0.7279,0.6,0.2487,6.0,2.1794,True,trigonal,-3m,166,23.1173,5.9223,1.0
Ba8 Li2 Nb6 O24,4,0.0,0.05,0.2,0.6,0.0,0.0,0.0,0.0,0.0,0.15,0.0,2.55,1.1334,1.55,0.6282,4.0,1.7284,True,hexagonal,6mm,186,14.5586,5.8567,0.3034
O28 Se12 Si8 Sm16,4,0.0,0.0,0.0,0.625,0.0,0.25,0.125,0.0,0.25,0.0,-1.0,2.27,0.9349,1.25,0.5,6.0,2.4238,True,tetragonal,4/mmm,141,16.3725,6.38,1.0
Ba8 F8 Se12 Sn4,4,0.0,0.0,0.25,0.375,0.25,0.0,0.0,0.0,0.0,0.0,-1.0,3.09,1.1074,1.65,0.5927,4.0,1.4524,True,orthorhombic,mmm,62,26.8046,5.1747,0.3226
Ga2 Sn6 Zr10,3,0.0,0.0,0.0,0.0,0.0,0.0,0.0,0.0,0.0,0.5556,1.2222,0.63,0.2976,0.25,0.0809,1.0,0.3143,True,hexagonal,6/mmm,193,21.6865,7.5037,1.4754
Ag4 F24 Sb4,3,0.0,0.0,0.0,0.0,0.75,0.0,0.125,0.0,0.0,0.125,-1.0,2.05,0.8622,1.1,0.4454,3.0,1.299,True,cubic,m-3,206,15.5993,4.5723,1.0
Ni4 O16 Te6,3,0.0,0.0,0.0,0.8462,0.0,0.0,0.2308,0.0,0.0,0.1538,-1.3846,1.53,0.6913,0.8,0.3798,3.0,1.3009,True,monoclinic,2/m,15,14.6798,5.466,0.4563
Cu2 Mn1 Sn1,3,0.0,0.0,0.0,0.0,0.0,0.0,0.0,0.0,0.0,0.75,0.5,0.41,0.1621,0.1,0.0415,1.0,0.433,True,cubic,m-3m,225,15.2071,8.2098,1.0
K4 Mn6 S8,3,0.0,0.2222,0.0,0.0,0.0,0.0,0.0,0.0,0.0,0.3333,0.0,1.76,0.7089,1.2,0.4619,1.0,0.4969,True,monoclinic,2/m,13,25.2461,2.7133,0.5601
O4 Sn2,2,0.0,0.0,0.0,0.6667,0.0,0.0,0.0,0.0,0.0,0.0,-2.6667,1.48,0.6977,0.85,0.4007,3.0,1.4142,True,orthorhombic,mmm,58,12.6223,6.6089,0.6707
O15 V6,2,0.0,0.0,0.0,0.7143,0.0,0.0,0.0,0.0,0.0,0.2857,-0.0,1.81,0.8177,0.75,0.3388,2.0,0.9035,True,monoclinic,2/m,12,13.272,3.2509,0.7798
Ca4 Pt4 Si4,3,0.0,0.0,0.3333,0.0,0.0,0.0,0.3333,0.0,0.0,0.3333,0.0,1.28,0.5367,0.7,0.2896,3.0,1.2472,True,orthorhombic,mmm,62,18.9782,7.6778,0.6023
Ba8 Si16,2,0.0,0.0,0.3333,0.0,0.0,0.0,0.6667,0.0,0.0,0.0,-2.0,1.01,0.4761,1.05,0.495,3.0,1.4142,True,orthorhombic,mmm,62,29.552,3.6242,0.5834
B1 Ho1 Rh3,3,0.0,0.0,0.0,0.0,0.0,0.2,0.2,0.0,0.2,0.6,3.0,1.05,0.4068,0.9,0.2857,6.0,1.8974,True,cubic,m-3m,221,14.8301,10.849,1.0
Ge2 Pd2 Sm1,3,0.0,0.0,0.0,0.0,0.0,0.2,0.4,0.0,0.2,0.4,-0.2,1.03,0.3835,0.6,0.2205,4.0,1.4697,True,tetragonal,4/mmm,139,19.0532,8.8631,0.7276
Cl12 Mn4 Tl4,3,0.0,0.0,0.0,0.0,0.6,0.0,0.0,0.0,0.0,0.2,0.0,1.61,0.7719,0.9,0.3555,3.0,1.1662,True,orthorhombic,mmm,62,25.8727,4.694,0.7007
Ge2 Ni2 Sm1,3,0.0,0.0,0.0,0.0,0.0,0.2,0.4,0.0,0.2,0.4,-0.2,0.84,0.3191,0.6,0.2245,4.0,1.6,True,tetragonal,4/mmm,139,16.6572,8.2348,0.7197
Ce8 Nd8 O28,3,0.0,0.0,0.0,0.6364,0.0,0.3636,0.0,0.0,0.3636,0.0,-0.1818,2.32,1.1112,1.25,0.6013,6.0,2.8863,True,triclinic,1,1,15.5995,6.5873,0.9902
Lu2 O3,2,0.0,0.0,0.0,0.6,0.0,0.4,0.0,0.0,0.4,0.0,0.0,2.17,1.0631,1.15,0.5634,4.0,1.9596,True,trigonal,-3m,164,12.7162,10.3927,0.6186
Pd20 Sb7,2,0.0,0.0,0.0,0.0,0.0,0.0,0.2593,0.0,0.0,0.7407,0.7037,0.15,0.0657,0.05,0.0219,0.0,0.0,True,trigonal,-3,148,17.0409,10.7576,1.0
In8 O36 Te12,3,0.0,0.0,0.0,0.8571,0.0,0.0,0.2143,0.0,0.0,0.0,-1.2857,1.66,0.7096,0.95,0.4144,3.0,1.4375,True,orthorhombic,mmm,62,15.1323,5.929,0.2985
La4 O12 Sc4,3,0.0,0.0,0.0,0.6,0.0,0.2,0.0,0.0,0.2,0.4,0.0,2.34,1.0858,1.35,0.5862,6.0,2.3324,True,orthorhombic,mmm,62,13.5684,5.6751,0.6997
K7 O24 S6 Ta1,4,0.0,0.1842,0.0,0.6316,0.0,0.0,0.0,0.0,0.0,0.0263,-1.2632,2.62,1.0159,1.6,0.6093,4.0,0.9575,True,trigonal,-3,148,17.1621,2.6252,1.0
Ba3 Nb2 O9 Zn1,4,0.0,0.0,0.2,0.6,0.0,0.0,0.0,0.0,0.0,0.2,0.0,2.55,1.0957,1.55,0.6247,4.0,1.6997,True,trigonal,-3m,164,14.3539,6.2254,0.8141
B1 Pr1 Rh3,3,0.0,0.0,0.0,0.0,0.0,0.2,0.2,0.0,0.2,0.6,3.0,1.15,0.4458,1.0,0.3162,6.0,1.8974,True,cubic,m-3m,221,15.6448,9.7741,1.0
C2 In2 V4,3,0.0,0.0,0.0,0.0,0.0,0.0,0.0,0.0,0.0,0.5,2.25,0.92,0.3817,0.85,0.3209,3.0,1.0897,True,hexagonal,6/mmm,194,13.4807,7.0431,0.2223
H12 Mg4 Na4,3,0.0,0.2,0.2,0.0,0.0,0.0,0.0,0.0,0.0,0.0,0.0,1.27,0.5426,1.55,0.6924,2.0,0.9798,True,orthorhombic,mmm,62,11.2461,1.486,0.7041
Br2 O1 V1,3,0.0,0.0,0.0,0.25,0.5,0.0,0.0,0.0,0.0,0.25,0.25,1.81,0.6743,0.75,0.2792,2.0,0.866,True,triclinic,-1,2,24.1991,3.8899,0.4887
Nb2 O5,2,0.0,0.0,0.0,0.7143,0.0,0.0,0.0,0.0,0.0,0.2857,-0.0,1.84,0.8312,0.85,0.384,3.0,1.3553,True,monoclinic,2,5,11.9351,5.2832,0.6948
Er4 La4 O12,3,0.0,0.0,0.0,0.6,0.0,0.4,0.0,0.0,0.4,0.2,0.0,2.34,1.1129,1.35,0.6156,6.0,2.9394,True,orthorhombic,mmm,62,15.204,7.7361,0.6903
Li56 N32 P8,3,0.0,0.5833,0.0,0.0,0.0,0.0,0.0,0.0,0.0,0.0,-0.6667,2.06,0.9573,0.8,0.3711,1.0,0.2764,True,cubic,-43m,218,8.6585,2.1669,1.0
Ba1 Bi3,2,0.0,0.0,0.25,0.0,0.0,0.0,0.0,0.0,0.0,0.0,2.75,1.13,0.4893,0.55,0.2382,0.0,0.0,True,cubic,m-3m,221,34.687,9.1468,1.0001
Ba6 O30 Ta10,3,0.0,0.0,0.1304,0.6522,0.0,0.0,0.0,0.0,0.0,0.2174,0.0435,2.55,1.0475,1.55,0.5663,4.0,1.9051,True,tetragonal,4/mmm,127,14.2335,7.8962,0.3147
N1 Na1 O2,3,0.0,0.25,0.0,0.5,0.0,0.0,0.0,0.0,0.0,0.0,-1.5,2.51,1.042,1.2,0.5128,1.0,0.433,True,orthorhombic,mm2,44,13.9719,2.05,0.8402
La2 Mg2 Na2 O12 Te2,5,0.0,0.1,0.1,0.7,0.0,0.1,0.1,0.0,0.1,0.1,-0.8,2.51,1.0576,1.35,0.5391,6.0,1.8682,True,monoclinic,2/m,11,12.5161,5.4369,0.7047
Al4 Lu2,2,0.0,0.0,0.0,0.0,0.0,0.3333,0.0,0.0,0.3333,0.0,3.0,0.34,0.1603,0.5,0.2357,3.0,1.4142,True,cubic,m-3m,227,19.4873,6.5025,1.0
Co2 Nd2 Si4,3,0.0,0.0,0.0,0.0,0.0,0.25,0.5,0.0,0.25,0.25,-0.75,0.76,0.3263,0.75,0.3062,5.0,2.0616,True,orthorhombic,mmm,63,17.31,6.2197,0.4838
In2 Tm4,2,0.0,0.0,0.0,0.0,0.0,0.6667,0.0,0.0,0.6667,0.0,3.0,0.53,0.2498,0.2,0.0943,3.0,1.4142,True,hexagonal,6/mmm,194,27.1144,9.2411,0.8005
O26 P8 Y4,3,0.0,0.0,0.0,0.6842,0.0,0.0,0.0,0.0,0.0,0.1053,-1.6842,2.22,0.7752,1.2,0.3754,3.0,0.9386,True,orthorhombic,222,20,14.2809,3.1193,0.7514
Nd8 Sb6,2,0.0,0.0,0.0,0.0,0.0,0.5714,0.4286,0.0,0.5714,0.0,0.4286,0.91,0.4503,0.4,0.1979,3.0,1.4846,True,cubic,-43m,220,30.8202,7.2524,1.0
B50,1,0.0,0.0,0.0,0.0,0.0,0.0,1.0,0.0,0.0,0.0,3.0,0.0,0.0,0.0,0.0,0.0,0.0,True,tetragonal,4/mmm,134,7.744,2.3182,0.5555
Cd4 O28 S8,3,0.0,0.0,0.0,0.7,0.0,0.0,0.0,0.0,0.0,0.1,-1.6,1.75,0.5777,0.95,0.3027,3.0,0.922,True,monoclinic,2/m,14,15.0328,3.1872,0.4015
Nd6 O14 Ta2,3,0.0,0.0,0.0,0.6364,0.0,0.2727,0.0,0.0,0.2727,0.0909,0.0,2.3,1.0673,1.25,0.563,6.0,2.6968,True,orthorhombic,222,20,14.7983,7.4026,0.8629
Li4 Mn8 O48 P12,4,0.0,0.0556,0.0,0.6667,0.0,0.0,0.0,0.0,0.0,0.1111,-1.5556,2.46,0.8279,0.85,0.3111,2.0,0.6781,True,monoclinic,m,7,11.5215,3.2166,0.7019
Ba1 Cu2 S2,3,0.0,0.0,0.2,0.0,0.0,0.0,0.0,0.0,0.0,0.4,0.4,1.69,0.6197,1.15,0.4202,3.0,1.0954,True,tetragonal,4/mmm,139,19.4043,5.6232,0.5683
C12 Fe4 N4 O16 Tl4,5,0.0,0.0,0.0,0.4,0.0,0.0,0.0,0.0,0.0,0.1,-2.0,1.82,0.6493,1.3,0.4198,4.0,1.2806,True,cubic,23,198,19.0704,3.2589,1.0
Al24 Ca2 O38,3,0.0,0.0,0.0313,0.5938,0.0,0.0,0.0,0.0,0.0,0.0,0.0,2.44,0.9276,1.2,0.3526,2.0,0.5555,True,hexagonal,6/mmm,194,9.4105,3.6827,0.2547
Cd4 I8 O24,3,0.0,0.0,0.0,0.6667,0.2222,0.0,0.0,0.0,0.0,0.1111,-1.3333,1.75,0.5833,0.95,0.4028,3.0,1.4142,True,orthorhombic,222,19,16.606,5.1356,0.3225
Hg3 O6 Sr3,3,0.0,0.0,0.25,0.5,0.0,0.0,0.0,0.0,0.0,0.25,-0.25,2.49,1.0503,1.4,0.6016,4.0,1.7854,True,trigonal,32,154,21.1222,6.2934,0.2027
Bi4 K8 Sn4,3,0.0,0.5,0.0,0.0,0.0,0.0,0.0,0.0,0.0,0.0,0.25,1.2,0.5854,0.75,0.3416,2.0,0.8292,True,orthorhombic,mmm,57,39.0,4.3205,0.4904
C4 Co2 Nd2,3,0.0,0.0,0.0,0.0,0.0,0.25,0.0,0.0,0.25,0.25,-0.75,1.41,0.5821,1.15,0.4835,6.0,2.4495,True,monoclinic,m,9,13.0742,7.214,0.5129
Mg2 Pd6,2,0.0,0.0,0.25,0.0,0.0,0.0,0.0,0.0,0.0,0.75,2.0,0.89,0.3854,0.1,0.0433,2.0,0.866,True,tetragonal,4/mmm,139,15.7176,9.0743,0.4717
Cu4 Se6 Si2,3,0.0,0.0,0.0,0.5,0.0,0.0,0.1667,0.0,0.0,0.3333,-1.0,0.65,0.325,0.25,0.1017,1.0,0.3727,True,monoclinic,m,9,21.256,5.1047,0.9926
Cd1 S2 Tl1,3,0.0,0.0,0.0,0.0,0.0,0.0,0.0,0.0,0.0,0.25,-0.25,0.96,0.4632,0.9,0.383,3.0,1.299,True,trigonal,-3m,164,23.4283,6.7498,0.5668
Fe1 Te2 Zr6,3,0.0,0.0,0.0,0.2222,0.0,0.0,0.2222,0.0,0.0,0.7778,2.4444,0.77,0.3289,0.15,0.0707,1.0,0.3143,True,hexagonal,-6m2,189,21.3586,7.4151,2.1776
Au2 Pb4,2,0.0,0.0,0.0,0.0,0.0,0.0,0.0,0.0,0.0,0.3333,2.3333,0.21,0.099,0.45,0.2121,0.0,0.0,True,tetragonal,4/mmm,140,27.1305,12.473,0.9606
Al2 Ge2 Nd1,3,0.0,0.0,0.0,0.0,0.0,0.2,0.4,0.0,0.2,0.0,0.2,0.87,0.3222,0.6,0.24,5.0,1.8547,True,trigonal,-3m,164,22.0989,5.162,0.6304
Ir6 Mg2 Si14,3,0.0,0.0,0.0909,0.0,0.0,0.0,0.6364,0.0,0.0,0.2727,-1.5455,0.89,0.2354,0.4,0.1437,3.0,1.3361,True,trigonal,-3m,167,15.0981,7.9743,1.0
O24 Se8 Zn8,3,0.0,0.0,0.0,0.8,0.0,0.0,0.0,0.0,0.0,0.2,-1.2,1.79,0.7155,0.75,0.3247,2.0,0.9798,True,orthorhombic,mmm,61,14.4141,4.4322,0.5259
Te20 U4,2,0.1667,0.0,0.0,0.8333,0.0,0.0,0.8333,0.0,0.1667,0.0,-0.6667,0.72,0.2683,0.35,0.1304,4.0,1.4907,True,orthorhombic,mmm,62,34.2786,7.0728,0.2268
F24 Te4,2,0.0,0.0,0.0,0.1429,0.8571,0.0,0.1429,0.0,0.0,0.0,-1.1429,1.88,0.6579,0.9,0.3149,3.0,1.0498,True,orthorhombic,mmm,62,17.2842,3.3157,0.5224
Au2 Mg6,2,0.0,0.0,0.75,0.0,0.0,0.0,0.0,0.0,0.0,0.25,2.25,1.23,0.5326,0.15,0.065,3.0,1.299,True,hexagonal,6/mmm,194,22.1172,5.0656,0.4906
Al10 Cs10 F40,3,0.0,0.1667,0.0,0.0,0.6667,0.0,0.0,0.0,0.0,0.0,0.0,3.19,1.3317,2.1,0.7766,4.0,1.4625,True,tetragonal,-42m,120,16.3143,4.0015,1.0
Ca4 Ge8 Li4,3,0.0,0.25,0.25,0.0,0.0,0.0,0.5,0.0,0.0,0.0,-1.25,1.03,0.51,0.55,0.2247,2.0,0.866,True,orthorhombic,mmm,62,21.4028,3.7299,0.3664
Ru8 Si4,2,0.0,0.0,0.0,0.0,0.0,0.0,0.3333,0.0,0.0,0.6667,0.6667,0.3,0.1414,0.2,0.0943,2.0,0.9428,True,orthorhombic,mmm,62,13.3558,9.5414,0.5418
Li3 Pb3 Yb3,3,0.0,0.3333,0.0,0.0,0.0,0.3333,0.0,0.0,0.3333,0.0,2.0,2.33,0.9552,0.35,0.1546,6.0,2.4944,True,hexagonal,-6m2,187,25.8207,8.2999,0.454
Co8 K8 O48 S12,4,0.0,0.1053,0.0,0.6316,0.0,0.0,0.0,0.0,0.0,0.1053,-1.2632,2.62,0.8741,1.6,0.5075,2.0,0.8154,True,cubic,23,198,13.43,3.1513,1.0
Ce2 P2 Pd2,3,0.0,0.0,0.0,0.0,0.0,0.3333,0.0,0.0,0.3333,0.3333,0.6667,1.08,0.5068,0.85,0.3472,5.0,2.0548,True,hexagonal,6/mmm,194,20.1289,7.6311,0.5356
Ag2 La2 Sb4,3,0.0,0.0,0.0,0.0,0.0,0.25,0.5,0.0,0.25,0.5,-0.5,0.95,0.3971,0.5,0.2043,3.0,1.299,True,tetragonal,4/mmm,129,26.993,7.5404,0.4054
B16 La8 O48 Sr12,4,0.0,0.0,0.1429,0.5714,0.0,0.0952,0.1905,0.0,0.0952,0.0952,0.0,2.49,1.0325,1.4,0.5692,6.0,1.9272,True,orthorhombic,mm2,33,13.3444,4.5977,0.442
Cl2 F2 O2 Pb4,4,0.0,0.0,0.0,0.2,0.4,0.0,0.0,0.0,0.0,0.0,-0.0,1.65,0.6428,1.3,0.5643,4.0,1.833,True,orthorhombic,mmm,67,21.9328,7.3417,0.828
Br6 La2,2,0.0,0.0,0.0,0.0,0.75,0.25,0.0,0.0,0.25,0.25,0.0,1.86,0.8054,0.8,0.3464,4.0,1.7321,True,hexagonal,6/m,176,32.2625,4.8718,1.8011
B6 Fe2 Nd5,3,0.0,0.0,0.0,0.0,0.0,0.3846,0.4615,0.0,0.3846,0.1538,2.8462,0.9,0.4184,1.0,0.4593,6.0,2.7607,True,trigonal,-3m,166,16.314,7.0293,1.0
F14 I2 Pb8,3,0.0,0.0,0.0,0.0,0.6667,0.0,0.0,0.0,0.0,0.0,-0.0,1.65,0.7856,1.3,0.6103,4.0,1.8911,True,orthorhombic,mmm,63,19.8601,7.5856,0.4646
Ir2 Mo2,2,0.0,0.0,0.0,0.0,0.0,0.0,0.0,0.0,0.0,1.0,3.5,0.04,0.02,0.1,0.05,1.0,0.5,True,orthorhombic,mmm,51,15.0549,15.8917,0.5709
Br4 In4 Te4,3,0.0,0.0,0.0,0.3333,0.3333,0.0,0.3333,0.0,0.0,0.0,0.0,1.18,0.4983,0.4,0.165,1.0,0.4714,True,monoclinic,2/m,14,38.4128,4.6445,0.9178
Pr1 Te1,2,0.0,0.0,0.0,0.5,0.0,0.5,0.5,0.0,0.5,0.0,0.5,0.97,0.485,0.45,0.225,3.0,1.5,True,cubic,m-3m,225,33.0086,6.7538,1.0
Ge2 O6 Zn2,3,0.0,0.0,0.0,0.6,0.0,0.0,0.2,0.0,0.0,0.2,-1.6,1.79,0.7969,0.75,0.3444,2.0,0.9798,True,trigonal,-3,148,10.3485,5.9707,1.0
Pt12 Sn20 Yb8,3,0.0,0.0,0.0,0.0,0.0,0.2,0.0,0.0,0.2,0.3,-0.8,2.28,0.8435,0.4,0.1418,3.0,1.1358,True,orthorhombic,mmm,62,22.2854,11.3623,0.1676
Na2 S14 Si2 Y6,4,0.0,0.0833,0.0,0.0,0.0,0.0,0.0833,0.0,0.0,0.25,-0.6667,1.65,0.6652,0.8,0.3722,2.0,0.866,True,hexagonal,6,173,20.7088,3.6234,1.7347
Cs2 Nd2 Te6 Zn2,4,0.0,0.1667,0.0,0.5,0.0,0.1667,0.5,0.0,0.1667,0.1667,-0.0,1.31,0.5175,1.25,0.4506,4.0,1.2583,True,orthorhombic,mmm,63,39.3873,5.0967,0.376
H36 O24 S2,3,0.0,0.0,0.0,0.3871,0.0,0.0,0.0,0.0,0.0,0.0,-1.4194,1.24,0.5979,0.75,0.2002,2.0,0.5587,True,monoclinic,m,9,9.6287,1.3474,0.6202
Ho1 Sn3,2,0.0,0.0,0.0,0.0,0.0,0.25,0.0,0.0,0.25,0.0,-2.25,0.73,0.3161,0.3,0.1299,3.0,1.299,True,cubic,m-3m,221,26.1372,8.276,1.0
Ge4 Na3 Pt4,3,0.0,0.2727,0.0,0.0,0.0,0.0,0.3636,0.0,0.0,0.3636,-0.4545,1.35,0.5532,0.55,0.2267,3.0,1.2332,True,cubic,-43m,217,20.9448,8.2155,1.0
Bi2 Ge1 Te4,3,0.0,0.0,0.0,0.5714,0.0,0.0,0.7143,0.0,0.0,0.0,-0.8571,0.09,0.0414,0.35,0.1156,2.0,0.6389,True,trigonal,-3m,166,34.5734,6.8682,1.0
O16 Sr4 Tb8,3,0.0,0.0,0.1429,0.5714,0.0,0.2857,0.0,0.0,0.2857,0.0,0.0,3.44,1.5732,1.4,0.6152,6.0,2.6419,True,orthorhombic,mmm,62,15.1701,7.3412,0.2862
P1 Sn1,2,0.0,0.0,0.0,0.0,0.0,0.0,0.0,0.0,0.0,0.0,-3.5,0.23,0.115,0.45,0.225,2.0,1.0,True,cubic,m-3m,225,21.8618,5.6847,1.0
Al1 La3 N1,3,0.0,0.0,0.0,0.0,0.0,0.6,0.0,0.0,0.6,0.6,1.8,1.94,0.7514,1.3,0.5254,6.0,2.7129,True,cubic,m-3m,221,26.4648,5.7437,1.0
K16 P8 Se24,3,0.0,0.3333,0.0,0.5,0.0,0.0,0.0,0.0,0.0,0.0,-1.1667,1.73,0.7835,1.2,0.5154,1.0,0.3727,True,monoclinic,2/m,14,33.0628,2.8967,0.6366
Ti3,1,0.0,0.0,0.0,0.0,0.0,0.0,0.0,0.0,0.0,1.0,4.0,0.0,0.0,0.0,0.0,0.0,0.0,True,hexagonal,6/mmm,191,17.1052,4.6468,1.618
K8 O10 U2,3,0.1,0.4,0.0,0.5,0.0,0.0,0.0,0.0,0.1,0.0,0.0,2.62,1.264,1.6,0.7657,7.0,2.0616,True,triclinic,-1,2,18.7227,4.2077,0.6663
C2 Li4 Mn2 O14 P2,5,0.0,0.1667,0.0,0.5833,0.0,0.0,0.0,0.0,0.0,0.0833,-1.4167,2.46,0.9727,0.85,0.3541,2.0,0.5951,True,monoclinic,2/m,11,11.6536,2.6575,0.6033
B2 C1 Ho1 Ni2,4,0.0,0.0,0.0,0.0,0.0,0.1667,0.3333,0.0,0.1667,0.3333,1.5,1.32,0.3868,1.05,0.3702,6.0,2.1344,True,tetragonal,4/mmm,139,10.7809,8.1108,0.6128
Mo1 N1,2,0.0,0.0,0.0,0.0,0.0,0.0,0.0,0.0,0.0,0.5,0.5,0.88,0.44,0.8,0.4,3.0,1.5,True,cubic,-43m,216,12.7521,7.1585,1.0
F18 S3,2,0.0,0.0,0.0,0.0,0.8571,0.0,0.0,0.0,0.0,0.0,-1.1429,1.4,0.4899,0.5,0.175,1.0,0.3499,True,monoclinic,2/m,12,14.4793,2.3929,0.5932
F1 K1,2,0.0,0.5,0.0,0.0,0.5,0.0,0.0,0.0,0.0,0.0,0.0,3.16,1.58,1.7,0.85,2.0,1.0,True,cubic,m-3m,221,17.3063,2.7872,1.0
Al1 Ni2 Zr1,3,0.0,0.0,0.0,0.0,0.0,0.0,0.0,0.0,0.0,0.75,2.75,0.58,0.2412,0.3,0.109,2.0,0.7071,True,cubic,m-3m,225,14.3846,6.7991,1.0
Cu4 Li4 O16 P4,4,0.0,0.1429,0.0,0.5714,0.0,0.0,0.0,0.0,0.0,0.1429,-1.1429,2.46,0.9295,0.85,0.3533,2.0,0.7284,True,orthorhombic,mmm,62,10.3367,3.7971,0.4724
K4 Nb4 O32 P8,4,0.0,0.0833,0.0,0.6667,0.0,0.0,0.0,0.0,0.0,0.0833,-1.3333,2.62,0.8821,1.6,0.4763,3.0,0.9538,True,monoclinic,2/m,14,15.8651,2.8081,0.438
Ga2 Hg1 Se4,3,0.0,0.0,0.0,0.5714,0.0,0.0,0.0,0.0,0.0,0.1429,-0.1429,0.74,0.34,0.35,0.1237,2.0,0.6999,True,tetragonal,-4,82,27.2257,5.7147,0.8518
In1 Nb1 Se2,3,0.0,0.0,0.0,0.5,0.0,0.0,0.0,0.0,0.0,0.25,1.0,0.95,0.4347,0.4,0.1785,1.0,0.5,True,hexagonal,-6m2,187,24.4069,6.2192,0.3689
Cr4 Cu2 S8,3,0.0,0.0,0.0,0.0,0.0,0.0,0.0,0.0,0.0,0.4286,0.0,0.92,0.4222,0.4,0.1903,1.0,0.4949,True,cubic,m-3m,227,17.0299,4.1203,1.0
Au2 Eu2 Ge2,3,0.0,0.0,0.0,0.0,0.0,0.3333,0.3333,0.0,0.3333,0.3333,0.3333,2.54,1.0941,0.6,0.2625,4.0,1.633,True,orthorhombic,mm2,44,22.9015,10.189,0.7839
Co34 Ho4,2,0.0,0.0,0.0,0.0,0.0,0.1053,0.0,0.0,0.1053,0.8947,2.1053,0.65,0.1995,0.4,0.1228,4.0,1.2276,True,hexagonal,6/mmm,194,12.6269,9.2175,1.0245
Ca2 Cu1 O3,3,0.0,0.0,0.3333,0.5,0.0,0.0,0.0,0.0,0.0,0.1667,-0.0,2.44,1.1113,1.2,0.546,2.0,1.0,True,orthorhombic,mmm,71,12.8004,4.1447,0.4989
Cl6 H8 Mn2 O4 Rb2,5,0.0,0.0909,0.0,0.1818,0.2727,0.0,0.0,0.0,0.0,0.0909,-0.7273,2.62,0.8067,2.1,0.6157,4.0,1.2984,True,triclinic,-1,2,17.3037,2.4671,0.7383