formula,numberOfSpecies,fracActinoid,fracAlkali,fracAlkaline,fracChalcogen,fracHalogen,fracLanthanoid,fracMetalloid,fracNobleGas,fracRareEarth,fracTransitionMetal,electronsPerAtom,electronegativityRange,electronegativityStd,radiiRange,radiiStd,rowRange,rowStd,ordered,crystalSystem,pointGroup,spaceGroupNumber,volumePerSite,density,c_a
As8 O20,2,0.0,0.0,0.0,0.7143,0.0,0.0,0.2857,0.0,0.0,0.0,-2.2857,1.26,0.5692,0.55,0.2485,2.0,0.9035,True,orthorhombic,222,19,12.9041,4.2252,0.5349
As2 Ca1 Zn2,3,0.0,0.0,0.2,0.0,0.0,0.0,0.4,0.0,0.0,0.4,-0.0,1.18,0.436,0.65,0.2375,0.0,0.0,True,trigonal,-3m,164,21.4763,4.9599,0.5961
Sc2 Si2,2,0.0,0.0,0.0,0.0,0.0,0.0,0.5,0.0,0.0,0.5,-0.5,0.54,0.27,0.5,0.25,1.0,0.5,True,orthorhombic,mmm,63,18.178,3.3361,0.6866
Cu2 Sm2 Sn2,3,0.0,0.0,0.0,0.0,0.0,0.3333,0.0,0.0,0.3333,0.3333,0.3333,0.79,0.3591,0.5,0.216,4.0,1.6997,True,hexagonal,6mm,186,22.715,8.1051,0.614
Mo6 O16 Zn4,3,0.0,0.0,0.0,0.6154,0.0,0.0,0.0,0.0,0.0,0.3846,0.0,1.79,0.7384,0.85,0.3952,3.0,1.3009,True,hexagonal,6mm,186,12.5561,5.5609,0.6576
Cu2 Rh4 Se8,3,0.0,0.0,0.0,0.5714,0.0,0.0,0.0,0.0,0.0,0.4286,0.0,0.65,0.2287,0.2,0.099,1.0,0.4518,True,cubic,m-3m,227,20.1003,6.9064,1.0
Er3 In3 Pt3,3,0.0,0.0,0.0,0.0,0.0,0.3333,0.0,0.0,0.3333,0.3333,2.6667,1.04,0.4247,0.4,0.1633,3.0,1.2472,True,hexagonal,-6m2,189,21.6698,12.1882,2.0026
As4 Mg1 Rh6,3,0.0,0.0,0.0909,0.0,0.0,0.0,0.3636,0.0,0.0,0.5455,0.7273,0.97,0.2714,0.35,0.1145,2.0,0.6556,True,hexagonal,-6m2,187,15.6347,9.0897,2.0314
Co2 Si1 V1,3,0.0,0.0,0.0,0.0,0.0,0.0,0.25,0.0,0.0,0.75,1.25,0.27,0.1114,0.25,0.1083,1.0,0.433,True,cubic,m-3m,225,11.441,7.1443,1.0
Ce1 Ni2 Sn2,3,0.0,0.0,0.0,0.0,0.0,0.2,0.0,0.0,0.2,0.4,-0.2,0.84,0.3268,0.5,0.1855,4.0,1.4697,True,tetragonal,4/mmm,139,20.422,8.0486,0.7295
O8 V4,2,0.0,0.0,0.0,0.6667,0.0,0.0,0.0,0.0,0.0,0.3333,0.3333,1.81,0.8532,0.75,0.3536,2.0,0.9428,True,monoclinic,2/m,12,10.3157,4.4504,0.8294
F128 I24 K8,3,0.0,0.05,0.0,0.0,0.95,0.0,0.0,0.0,0.0,0.0,-0.9,3.16,0.7962,1.7,0.4665,3.0,1.1169,True,monoclinic,2/m,14,17.3956,3.4545,0.9895
Ag20 Cs4 Te12,3,0.0,0.1111,0.0,0.3333,0.0,0.0,0.3333,0.0,0.0,0.5556,0.0,1.31,0.3862,1.2,0.35,1.0,0.3143,True,tetragonal,4/mmm,136,28.7767,6.7645,0.312
H24 Na24 O76 P16 Zn12,5,0.0,0.1579,0.0,0.5,0.0,0.0,0.0,0.0,0.0,0.0789,-1.1579,2.51,0.9522,1.55,0.5025,3.0,0.8171,True,cubic,23,198,11.6014,2.8931,1.0
Bi1 Ho1 Pt1,3,0.0,0.0,0.0,0.0,0.0,0.3333,0.0,0.0,0.3333,0.3333,2.6667,1.05,0.4465,0.4,0.165,2.0,0.9428,True,cubic,-43m,216,25.385,12.4068,1.0
Cr8 Zr4,2,0.0,0.0,0.0,0.0,0.0,0.0,0.0,0.0,0.0,1.0,3.3333,0.33,0.1556,0.15,0.0707,1.0,0.4714,True,hexagonal,6/mmm,194,15.2143,7.1022,0.6289
As2 Ca4 O1,3,0.0,0.0,0.5714,0.1429,0.0,0.0,0.2857,0.0,0.0,0.0,0.0,2.44,0.8821,1.2,0.446,2.0,0.6999,True,tetragonal,4/mmm,139,23.0839,3.3517,0.544
Mg2 N4 Si2,3,0.0,0.0,0.25,0.0,0.0,0.0,0.25,0.0,0.0,0.0,-2.0,1.73,0.7472,0.85,0.3544,1.0,0.5,True,tetragonal,-42m,122,10.8143,3.0865,0.8903
Ca1 Na10 Sn12,3,0.0,0.4348,0.0435,0.0,0.0,0.0,0.0,0.0,0.0,0.0,-1.5652,1.03,0.5115,0.35,0.1748,2.0,0.9741,True,cubic,-43m,217,31.4173,3.894,1.0
Au2 Eu1 Si2,3,0.0,0.0,0.0,0.0,0.0,0.2,0.4,0.0,0.2,0.4,0.0,2.54,0.933,0.75,0.2739,5.0,1.9391,True,tetragonal,4/mmm,139,19.719,10.14,0.7351
Dy1 Hg1,2,0.0,0.0,0.0,0.0,0.0,0.5,0.0,0.0,0.5,0.5,2.0,0.78,0.39,0.25,0.125,2.0,1.0,True,cubic,m-3m,221,25.928,11.6269,1.0
Ag28 Rb4 S16,3,0.0,0.0833,0.0,0.0,0.0,0.0,0.0,0.0,0.0,0.5833,0.0,1.76,0.4776,1.35,0.3847,2.0,0.9428,True,tetragonal,4/m,85,22.3364,6.0019,0.7602
Cs2 F6 Si1,3,0.0,0.2222,0.0,0.0,0.6667,0.0,0.1111,0.0,0.0,0.0,-0.8889,3.19,1.3633,2.1,0.8576,4.0,1.633,True,cubic,m-3m,225,20.6772,3.6396,1.0
Ag2 I2 O8,3,0.0,0.0,0.0,0.6667,0.1667,0.0,0.0,0.0,0.0,0.1667,-1.3333,1.51,0.5794,1.0,0.4282,3.0,1.4142,True,triclinic,-1,2,14.9959,5.514,0.7666
Cu4 Si4 Zr4,3,0.0,0.0,0.0,0.0,0.0,0.0,0.3333,0.0,0.0,0.6667,0.6667,0.57,0.2687,0.45,0.1841,2.0,0.8165,True,orthorhombic,mmm,62,15.7259,6.4361,0.5389
La6 Rh8 Sn26,3,0.0,0.0,0.0,0.0,0.0,0.15,0.0,0.0,0.15,0.35,-1.55,1.18,0.3566,0.6,0.191,3.0,1.0712,True,cubic,m-3m,223,24.0899,8.1737,1.0
Al2 F8 Rb2,3,0.0,0.1667,0.0,0.0,0.6667,0.0,0.0,0.0,0.0,0.0,0.0,3.16,1.3232,1.85,0.6902,3.0,1.1055,True,tetragonal,4/mmm,127,14.5258,3.5904,0.8136
Br12 Ga4 Li4,3,0.0,0.2,0.0,0.0,0.6,0.0,0.0,0.0,0.0,0.0,0.2,1.98,0.8104,0.3,0.12,2.0,0.8,True,monoclinic,2/m,11,28.9466,3.6298,0.6305
Nb9 O25 P1,3,0.0,0.0,0.0,0.7143,0.0,0.0,0.0,0.0,0.0,0.2571,-0.2286,1.84,0.8101,0.85,0.3708,3.0,1.3049,True,tetragonal,-4,82,14.0507,4.2786,0.3393
O44 Ti24,2,0.0,0.0,0.0,0.6471,0.0,0.0,0.0,0.0,0.0,0.3529,0.1176,1.9,0.908,0.8,0.3823,2.0,0.9558,True,triclinic,-1,2,10.8012,4.1888,0.289
F6 Rb2 Rh1,3,0.0,0.2222,0.0,0.0,0.6667,0.0,0.0,0.0,0.0,0.1111,-0.1111,3.16,1.3214,1.85,0.765,3.0,1.4142,True,trigonal,-3m,164,17.3392,4.1269,1.2054
Be4 Cu2,2,0.0,0.0,0.6667,0.0,0.0,0.0,0.0,0.0,0.0,0.3333,2.0,0.33,0.1556,0.3,0.1414,2.0,0.9428,True,cubic,m-3m,227,8.9468,5.0465,1.0
Cu2 Li2 O8 P2,4,0.0,0.1429,0.0,0.5714,0.0,0.0,0.0,0.0,0.0,0.1429,-1.1429,2.46,0.9295,0.85,0.3533,2.0,0.7284,True,monoclinic,m,7,12.0205,3.2652,1.2054
As12 Co24,2,0.0,0.0,0.0,0.0,0.0,0.0,0.3333,0.0,0.0,0.6667,0.3333,0.3,0.1414,0.2,0.0943,0.0,0.0,True,hexagonal,-6m2,189,12.198,8.7482,3.3216
Au1 Pb1 Tb1,3,0.0,0.0,0.0,0.0,0.0,0.3333,0.0,0.0,0.3333,0.3333,2.6667,2.54,1.1511,0.45,0.2014,2.0,0.9428,True,cubic,-43m,216,26.9693,11.5568,1.0
La2 Te4,2,0.0,0.0,0.0,0.6667,0.0,0.3333,0.6667,0.0,0.3333,0.3333,-0.3333,1.0,0.4714,0.55,0.2593,3.0,1.4142,True,tetragonal,4/mmm,129,32.1971,6.7752,0.4907
Ca8 O28 P8,3,0.0,0.0,0.1818,0.6364,0.0,0.0,0.0,0.0,0.0,0.0,-1.4545,2.44,0.9573,1.2,0.4542,2.0,0.782,True,monoclinic,2/m,14,13.6339,2.8135,0.4209
In2 Rb2 Te4,3,0.0,0.25,0.0,0.5,0.0,0.0,0.5,0.0,0.0,0.0,0.0,1.28,0.5246,0.95,0.3945,0.0,0.0,True,tetragonal,4/mmm,140,38.4148,4.9223,1.0
Al2 Se4 Zn1,3,0.0,0.0,0.0,0.5714,0.0,0.0,0.0,0.0,0.0,0.1429,0.0,0.94,0.4587,0.2,0.0728,1.0,0.4518,True,tetragonal,-4,82,24.9065,4.1451,0.8297
Al28 O50 Sr8,3,0.0,0.0,0.093,0.5814,0.0,0.0,0.0,0.0,0.0,0.0,0.0,2.49,0.9912,1.4,0.4506,3.0,0.8929,True,orthorhombic,mmm,51,12.315,3.5378,0.1973
Au4 K4 Se20,3,0.0,0.1429,0.0,0.7143,0.0,0.0,0.0,0.0,0.0,0.1429,-0.8571,1.73,0.6048,1.05,0.3624,2.0,0.6999,True,orthorhombic,mmm,72,31.8558,4.6978,0.8375
Ir2 P2 Pr2,3,0.0,0.0,0.0,0.0,0.0,0.3333,0.0,0.0,0.3333,0.3333,1.0,1.07,0.5021,0.85,0.3488,5.0,2.0548,True,tetragonal,4mm,109,20.4242,9.8674,0.5366
Er12 Rh4,2,0.0,0.0,0.0,0.0,0.0,0.75,0.0,0.0,0.75,0.25,3.0,1.04,0.4503,0.4,0.1732,3.0,1.299,True,orthorhombic,mmm,62,26.0536,9.6349,0.6695
Cl2 O8 Sb6,3,0.0,0.0,0.0,0.5,0.125,0.0,0.375,0.0,0.0,0.0,-2.25,1.39,0.6519,0.85,0.3937,3.0,1.3919,True,monoclinic,2/m,13,19.0891,5.0533,0.5711
Ba8 S16 Si4,3,0.0,0.0,0.2857,0.0,0.0,0.0,0.1429,0.0,0.0,0.0,-1.1429,1.69,0.7387,1.15,0.5116,3.0,1.3553,True,orthorhombic,mmm,62,27.2219,3.7559,0.55
Hg1 Mg1,2,0.0,0.0,0.5,0.0,0.0,0.0,0.0,0.0,0.0,0.5,1.5,0.69,0.345,0.0,0.0,3.0,1.5,True,cubic,m-3m,221,21.4294,8.7134,1.0
O2 Rb1 Yb1,3,0.0,0.25,0.0,0.5,0.0,0.25,0.0,0.0,0.25,0.0,0.0,3.44,1.5425,1.75,0.7554,6.0,2.4875,True,trigonal,-3m,166,17.5646,6.866,1.0
Eu1 O2 Rb1,3,0.0,0.25,0.0,0.5,0.0,0.25,0.0,0.0,0.25,0.0,-0.25,3.44,1.5425,1.75,0.7706,6.0,2.4875,True,trigonal,-3m,166,18.603,6.0125,1.0
F2 Li2 O8 P2 W2,5,0.0,0.125,0.0,0.5,0.125,0.0,0.0,0.0,0.0,0.125,-0.875,3.0,0.9229,0.95,0.3542,4.0,1.317,True,triclinic,-1,2,12.6243,5.0107,0.6779
Cr2 O8 P2,3,0.0,0.0,0.0,0.6667,0.0,0.0,0.0,0.0,0.0,0.1667,-1.3333,1.78,0.7304,0.8,0.3055,2.0,0.7638,True,orthorhombic,mmm,63,10.8753,3.74,0.7506
Cd2 La4 S8,3,0.0,0.0,0.0,0.0,0.0,0.2857,0.0,0.0,0.2857,0.4286,0.0,1.48,0.6607,0.95,0.4226,5.0,2.1853,True,tetragonal,-42m,122,23.751,5.1785,1.0
Cl12 K4 Mn4,3,0.0,0.2,0.0,0.0,0.6,0.0,0.0,0.0,0.0,0.2,0.0,2.34,0.9947,1.2,0.4665,1.0,0.4899,True,orthorhombic,mmm,62,25.3531,2.625,0.6972
In2 Ni21 P6,3,0.0,0.0,0.0,0.0,0.0,0.0,0.0,0.0,0.0,0.7241,1.0345,0.41,0.1224,0.55,0.1571,2.0,0.5068,True,cubic,m-3m,225,11.763,8.0223,1.0
Fe4 Mg3 O24 V6,4,0.0,0.0,0.0811,0.6486,0.0,0.0,0.0,0.0,0.0,0.2703,-0.1081,2.13,0.8772,0.9,0.3835,2.0,0.8808,True,triclinic,-1,2,13.1038,3.3767,0.6808
Br16 Tl8,2,0.0,0.0,0.0,0.0,0.6667,0.0,0.0,0.0,0.0,0.0,-0.3333,1.34,0.6317,0.75,0.3536,2.0,0.9428,True,orthorhombic,mmm,52,39.422,5.1135,0.7515
In2 La2 Ni4,3,0.0,0.0,0.0,0.0,0.0,0.25,0.0,0.0,0.25,0.75,2.5,0.81,0.3362,0.6,0.2449,4.0,1.6394,True,orthorhombic,mmm,51,19.5334,7.887,0.5772
Cl2 H12 Na2 O10,4,0.0,0.0769,0.0,0.3846,0.0769,0.0,0.0,0.0,0.0,0.0,-1.2308,2.51,0.7623,1.55,0.4221,2.0,0.7216,True,triclinic,-1,2,11.0946,1.6635,0.6102
Bi6 La8,2,0.0,0.0,0.0,0.0,0.0,0.5714,0.0,0.0,0.5714,0.5714,3.0,0.92,0.4553,0.35,0.1732,2.0,0.9897,True,cubic,-43m,220,34.5312,8.1239,1.0
S3 U4,2,0.5714,0.0,0.0,0.0,0.0,0.0,0.0,0.0,0.5714,0.0,2.5714,1.2,0.5938,0.75,0.3712,6.0,2.9692,True,cubic,m-3m,221,22.5194,11.0429,1.0
B20 Co58 Pr6 Si8,4,0.0,0.0,0.0,0.0,0.0,0.0652,0.3043,0.0,0.0652,0.6304,1.7609,0.91,0.2053,1.0,0.2579,6.0,1.3899,True,tetragonal,4/mmm,129,10.7182,7.9223,0.7023
Ba6 P12 Si8,3,0.0,0.0,0.2308,0.0,0.0,0.0,0.3077,0.0,0.0,0.0,-2.1538,1.3,0.5142,1.15,0.4696,3.0,1.264,True,monoclinic,2/m,11,24.7238,3.669,0.6331
Cs4 H28 O16,3,0.0,0.0833,0.0,0.3333,0.0,0.0,0.0,0.0,0.0,0.0,-1.1667,2.65,0.7686,2.35,0.6351,5.0,1.3617,True,monoclinic,2/m,14,11.0595,2.552,0.6064
Cd4 O8 Rb8,3,0.0,0.4,0.0,0.4,0.0,0.0,0.0,0.0,0.0,0.2,0.0,2.62,1.1848,1.75,0.7832,3.0,1.4697,True,orthorhombic,mmm,60,22.3271,4.6906,0.5947
Ni1 O6 Re1 Sr2,4,0.0,0.0,0.2,0.6,0.0,0.0,0.0,0.0,0.0,0.2,-0.2,2.49,1.0311,1.4,0.5653,4.0,1.5362,True,tetragonal,4/m,87,12.6058,6.7989,0.991
Pr1 Sb1,2,0.0,0.0,0.0,0.0,0.0,0.5,0.5,0.0,0.5,0.0,0.0,0.92,0.46,0.4,0.2,3.0,1.5,True,cubic,m-3m,225,33.5151,6.5071,1.0
In4 K1,2,0.0,0.2,0.0,0.0,0.0,0.0,0.0,0.0,0.0,0.0,2.6,0.96,0.384,0.65,0.26,1.0,0.4,True,tetragonal,4/mmm,139,31.7042,5.2205,0.6767
Bi4 I4 S4,3,0.0,0.0,0.0,0.0,0.3333,0.0,0.0,0.0,0.0,0.0,0.0,0.64,0.2847,0.6,0.2494,3.0,1.2472,True,orthorhombic,mmm,62,34.5035,5.9027,0.3801
Al14 Au6 Pr2,3,0.0,0.0,0.0,0.0,0.0,0.0909,0.0,0.0,0.0909,0.2727,3.0,1.41,0.4612,0.6,0.1696,5.0,1.7628,True,trigonal,-3m,167,18.6759,7.4419,1.0
Pd2 Si2 Y1,3,0.0,0.0,0.0,0.0,0.0,0.0,0.4,0.0,0.0,0.6,-0.2,0.98,0.3581,0.7,0.2577,2.0,0.9798,True,tetragonal,4/mmm,139,17.2846,6.8771,0.7183
Fe4 Tb2 Zn40,3,0.0,0.0,0.0,0.0,0.0,0.0435,0.0,0.0,0.0435,0.9565,2.0435,1.83,0.3436,0.4,0.0819,4.0,0.8157,True,cubic,m-3m,227,15.1553,7.5211,1.0
Si8,1,0.0,0.0,0.0,0.0,0.0,0.0,1.0,0.0,0.0,0.0,-4.0,0.0,0.0,0.0,0.0,0.0,0.0,True,cubic,m-3,206,18.4269,2.5309,1.0
As2 Ca2 Cu2,3,0.0,0.0,0.3333,0.0,0.0,0.0,0.3333,0.0,0.0,0.3333,0.3333,1.18,0.5034,0.65,0.2718,0.0,0.0,True,hexagonal,6/mmm,194,20.2232,4.8868,0.527
Nb1 Rh1 Sn1,3,0.0,0.0,0.0,0.0,0.0,0.0,0.0,0.0,0.0,0.6667,1.3333,0.68,0.2778,0.1,0.0471,0.0,0.0,True,cubic,-43m,216,20.8617,8.345,1.0
Cr4 La4 Sb12,3,0.0,0.0,0.0,0.0,0.0,0.2,0.6,0.0,0.2,0.4,-0.6,0.95,0.373,0.55,0.2059,4.0,1.3565,True,orthorhombic,mmm,57,25.948,7.1186,0.464
Br2 Tb2,2,0.0,0.0,0.0,0.0,0.5,0.5,0.0,0.0,0.5,0.0,1.0,2.96,1.48,0.6,0.3,4.0,2.0,True,trigonal,-3m,166,34.371,5.7692,1.0
As2 O13 V4,3,0.0,0.0,0.0,0.6842,0.0,0.0,0.1053,0.0,0.0,0.2105,-0.6316,1.81,0.77,0.75,0.322,2.0,0.9297,True,triclinic,1,1,11.7264,4.1856,0.5645
O24 W8,2,0.0,0.0,0.0,0.75,0.0,0.0,0.0,0.0,0.0,0.25,-0.5,1.08,0.4677,0.75,0.3248,4.0,1.7321,True,triclinic,-1,2,14.3676,6.6987,0.9901
Re24 Zr5,2,0.0,0.0,0.0,0.0,0.0,0.0,0.0,0.0,0.0,1.0,4.0,0.57,0.2153,0.2,0.0755,1.0,0.3777,True,cubic,-43m,217,16.2792,17.3234,1.0
Dy1 S1,2,0.0,0.0,0.0,0.0,0.0,0.5,0.0,0.0,0.5,0.0,0.5,1.36,0.68,0.75,0.375,5.0,2.5,True,cubic,m-3m,225,21.041,7.6775,1.0
Ga3 Pt5,2,0.0,0.0,0.0,0.0,0.0,0.0,0.0,0.0,0.0,0.625,2.375,0.47,0.2275,0.05,0.0242,2.0,0.9682,True,orthorhombic,mmm,65,15.3396,16.0292,0.7197
Ag8 K4 S6,3,0.0,0.2222,0.0,0.0,0.0,0.0,0.0,0.0,0.0,0.4444,0.0,1.76,0.6432,1.2,0.4422,2.0,0.8749,True,monoclinic,2/m,12,23.7514,4.7064,0.3665
Cl12 Pd2 Se4,3,0.0,0.0,0.0,0.2222,0.6667,0.0,0.0,0.0,0.0,0.1111,-0.8889,0.96,0.3556,0.4,0.1293,2.0,0.6849,True,monoclinic,2/m,15,32.6385,2.6968,0.7818
Ba2 La4 O10 Pt2,4,0.0,0.0,0.1111,0.5556,0.0,0.2222,0.0,0.0,0.2222,0.3333,-0.0,2.55,1.1044,1.55,0.6525,6.0,2.5724,True,tetragonal,4/mmm,127,16.094,7.9128,0.8642
Hg1 Se1,2,0.0,0.0,0.0,0.5,0.0,0.0,0.0,0.0,0.0,0.5,-0.5,0.55,0.275,0.35,0.175,2.0,1.0,True,cubic,m-3m,225,24.5055,9.4714,1.0
Br40 Pd8 Tl24,3,0.0,0.0,0.0,0.0,0.5556,0.0,0.0,0.0,0.0,0.1111,-0.0,1.34,0.617,0.75,0.3425,2.0,0.9162,True,orthorhombic,mmm,61,34.2417,6.03,0.4666
F24 Ge2 S4,3,0.0,0.0,0.0,0.0,0.8,0.0,0.0667,0.0,0.0,0.0,-1.3333,1.97,0.6473,0.75,0.2392,2.0,0.5735,True,orthorhombic,mmm,58,15.1096,2.6724,0.634
As1 S3 Tl3,3,0.0,0.0,0.0,0.0,0.0,0.0,0.1429,0.0,0.0,0.0,-0.8571,0.96,0.4453,0.9,0.4296,3.0,1.3997,True,trigonal,3m,160,29.1686,6.3782,1.0
Eu2 O2 Te1,3,0.0,0.0,0.0,0.6,0.0,0.4,0.2,0.0,0.4,0.0,-0.4,3.44,1.5459,1.25,0.5634,6.0,2.6833,True,tetragonal,4/mmm,139,22.1812,6.9402,0.5463
B3 Ca4 O10 Sm1,4,0.0,0.0,0.2222,0.5556,0.0,0.0556,0.1667,0.0,0.0556,0.0,-0.0,2.44,1.0597,1.25,0.5239,6.0,1.5113,True,monoclinic,m,8,12.958,3.5817,0.398
Ge2 La1 Rh2,3,0.0,0.0,0.0,0.0,0.0,0.2,0.4,0.0,0.2,0.6,0.2,1.18,0.4351,0.7,0.2638,4.0,1.4697,True,tetragonal,4/mmm,139,19.0429,8.5455,0.6897
B20 Bi12 O48,3,0.0,0.0,0.0,0.6,0.0,0.0,0.25,0.0,0.0,0.0,0.0,1.42,0.6896,1.0,0.3471,4.0,1.4283,True,orthorhombic,mmm,62,12.2365,5.9234,0.3559
Cd12 Rb8 Te16,3,0.0,0.2222,0.0,0.4444,0.0,0.0,0.4444,0.0,0.0,0.3333,0.0,1.28,0.4927,0.95,0.374,0.0,0.0,True,monoclinic,2/m,15,38.4301,4.8902,0.8161
Bi2 Li2 S4,3,0.0,0.25,0.0,0.0,0.0,0.0,0.0,0.0,0.0,0.0,0.0,1.6,0.6533,0.6,0.2678,4.0,1.5,True,orthorhombic,mmm,74,21.9343,5.3003,1.1466
Cl1 Rb1,2,0.0,0.5,0.0,0.0,0.5,0.0,0.0,0.0,0.0,0.0,0.0,2.34,1.17,1.35,0.675,2.0,1.0,True,cubic,m-3m,225,37.574,2.672,1.0
P8 Ti4,2,0.0,0.0,0.0,0.0,0.0,0.0,0.0,0.0,0.0,0.3333,-0.6667,0.65,0.3064,0.4,0.1886,1.0,0.4714,True,orthorhombic,mmm,62,14.2381,4.2691,0.4049
Al8 Fe4 Th1,3,0.0769,0.0,0.0,0.0,0.0,0.0,0.0,0.0,0.0769,0.3077,2.7692,0.53,0.1427,0.55,0.1496,6.0,1.5765,True,tetragonal,4/mmm,139,15.0186,5.7092,0.7508
Er1 O2 Rb1,3,0.0,0.25,0.0,0.5,0.0,0.25,0.0,0.0,0.25,0.0,0.0,2.62,1.2141,1.75,0.7554,6.0,2.4875,True,trigonal,-3m,166,17.1123,6.9073,1.0
Al1 Cu1 Pt2,3,0.0,0.0,0.0,0.0,0.0,0.0,0.0,0.0,0.0,0.75,2.25,0.67,0.2818,0.1,0.0433,3.0,1.299,True,tetragonal,4/mmm,123,14.1225,14.1302,0.8819
In1 Ni2 Sc1,3,0.0,0.0,0.0,0.0,0.0,0.0,0.0,0.0,0.0,0.75,2.5,0.55,0.2257,0.25,0.1139,1.0,0.433,True,cubic,m-3m,225,15.472,7.4366,1.0
B8 Ir8 Nd2,3,0.0,0.0,0.0,0.0,0.0,0.1111,0.4444,0.0,0.1111,0.4444,3.0,1.06,0.3171,1.0,0.3333,6.0,2.2662,True,tetragonal,4/m,86,13.1665,13.4016,0.5186
Er2 Si2,2,0.0,0.0,0.0,0.0,0.0,0.5,0.5,0.0,0.5,0.0,-0.5,0.66,0.33,0.65,0.325,5.0,2.5,True,orthorhombic,mmm,63,21.0349,7.7105,0.6755
Cl12 Re12 Te32,3,0.0,0.0,0.0,0.5714,0.2143,0.0,0.5714,0.0,0.0,0.2143,-0.5,1.26,0.4641,0.4,0.1598,3.0,1.0127,True,orthorhombic,222,18,31.833,6.2812,0.4614
Mn4 Nd4 O12,3,0.0,0.0,0.0,0.6,0.0,0.2,0.0,0.0,0.2,0.2,-0.2,2.3,1.0345,1.25,0.5219,6.0,2.3324,True,orthorhombic,mmm,62,12.4592,6.5887,0.7146
Ge4 K4 Li12 O16,4,0.0,0.4444,0.0,0.4444,0.0,0.0,0.1111,0.0,0.0,0.0,-0.8889,2.62,1.1808,1.6,0.5364,2.0,0.8315,True,triclinic,-1,2,11.975,3.0285,0.59
Ag4 H20 O36 S8,4,0.0,0.0,0.0,0.5294,0.0,0.0,0.0,0.0,0.0,0.0588,-1.5294,1.51,0.6047,1.35,0.3371,4.0,0.9701,True,monoclinic,2/m,14,11.4416,2.7407,0.5569
Sn12 Sr4,2,0.0,0.0,0.25,0.0,0.0,0.0,0.0,0.0,0.0,0.0,-2.5,1.01,0.4373,0.55,0.2382,0.0,0.0,True,trigonal,-3m,166,29.7949,6.1828,1.0
Mo8 N32 Sr24,3,0.0,0.0,0.375,0.0,0.0,0.0,0.0,0.0,0.0,0.125,-0.25,2.09,0.9675,1.35,0.6292,3.0,1.5,True,orthorhombic,mmm,61,18.917,4.5517,0.8387
O1 Zr1,2,0.0,0.0,0.0,0.5,0.0,0.0,0.0,0.0,0.0,0.5,1.0,2.11,1.055,0.95,0.475,3.0,1.5,True,cubic,-43m,216,15.8629,5.6121,1.0
Ce1 Ge2 Ru2,3,0.0,0.0,0.0,0.0,0.0,0.2,0.4,0.0,0.2,0.4,0.2,1.08,0.4031,0.6,0.2311,4.0,1.4697,True,tetragonal,4/mmm,139,18.4244,8.7881,0.7332
Fe29 Nd3,2,0.0,0.0,0.0,0.0,0.0,0.0938,0.0,0.0,0.0938,0.9063,2.0938,0.69,0.2011,0.45,0.1312,4.0,1.1659,True,monoclinic,2/m,12,13.6054,7.8274,0.6165
Dy6 Fe1 Te2,3,0.0,0.0,0.0,0.2222,0.0,0.6667,0.2222,0.0,0.6667,0.1111,1.7778,0.88,0.3796,0.35,0.165,4.0,1.5947,True,hexagonal,-6m2,189,26.5321,8.9432,2.0952
K6 O26 Si4 Ta6,4,0.0,0.1429,0.0,0.619,0.0,0.0,0.0952,0.0,0.0,0.1429,-0.7619,2.62,1.0522,1.6,0.5785,4.0,1.4302,True,hexagonal,-6m2,189,13.791,5.2997,1.1663
Ni20 P13 Zr6,3,0.0,0.0,0.0,0.0,0.0,0.0,0.0,0.0,0.0,0.6667,0.641,0.86,0.2791,0.55,0.199,2.0,0.6745,True,hexagonal,-6,174,12.592,7.1815,3.4337
F12 K2 Nb2,3,0.0,0.125,0.0,0.0,0.75,0.0,0.0,0.0,0.0,0.125,0.0,3.16,1.2152,1.7,0.6036,3.0,1.111,True,tetragonal,-42m,116,18.0175,2.8339,0.5333
Fe2 S6 U2,3,0.2,0.0,0.0,0.0,0.0,0.0,0.0,0.0,0.2,0.2,0.4,1.2,0.4984,0.75,0.3027,6.0,2.3324,True,orthorhombic,mmm,63,16.701,7.7567,0.4327
Ba2 O6 Sb1 Yb1,4,0.0,0.0,0.2,0.6,0.0,0.1,0.1,0.0,0.1,0.0,-0.8,3.44,1.3004,1.55,0.6518,6.0,2.1932,True,cubic,m-3m,225,20.2017,5.4699,1.0
Ho24 Se44,2,0.0,0.0,0.0,0.6471,0.0,0.3529,0.0,0.0,0.3529,0.0,-0.2353,1.32,0.6308,0.6,0.2867,4.0,1.9115,True,triclinic,1,1,23.6466,7.6756,0.9596
B6 Cr2 Th1,3,0.1111,0.0,0.0,0.0,0.0,0.0,0.6667,0.0,0.1111,0.2222,3.1111,0.74,0.2553,0.95,0.34,7.0,2.1999,True,orthorhombic,mmm,71,9.5109,7.7771,0.5631
Gd2 Na2 O4,3,0.0,0.25,0.0,0.5,0.0,0.25,0.0,0.0,0.25,0.0,0.0,2.51,1.1913,1.2,0.6,6.0,2.4875,True,tetragonal,4/mmm,141,14.5782,6.0438,0.7473
Ba2 O6 Ru1 Y1,4,0.0,0.0,0.2,0.6,0.0,0.0,0.0,0.0,0.0,0.2,-0.2,2.55,1.102,1.55,0.6508,4.0,1.7436,True,cubic,m-3m,225,15.1041,6.1635,1.0
Al2 Ce1 Zn2,3,0.0,0.0,0.0,0.0,0.0,0.2,0.0,0.0,0.2,0.4,2.6,0.53,0.2048,0.6,0.2245,5.0,1.8547,True,tetragonal,4/mmm,139,19.3089,5.5881,0.6757
Fe2 Se2 Tl1,3,0.0,0.0,0.0,0.4,0.0,0.0,0.0,0.0,0.0,0.4,0.2,0.93,0.3945,0.75,0.2739,2.0,0.8,True,tetragonal,4/mmm,139,21.0975,7.4614,0.4556
Cu6 Er4 Rb2 S10,4,0.0,0.0909,0.0,0.0,0.0,0.1818,0.0,0.0,0.1818,0.2727,0.2727,1.76,0.6222,1.35,0.4191,5.0,1.8227,True,orthorhombic,mmm,63,20.4386,5.6942,0.2393
Mo20 O32 Pr4,3,0.0,0.0,0.0,0.5714,0.0,0.0714,0.0,0.0,0.0714,0.3571,0.5,2.31,0.7611,1.25,0.464,6.0,1.8803,True,monoclinic,2/m,14,14.1989,6.2534,0.7807
Li12 O48 P12 Ti8,4,0.0,0.15,0.0,0.6,0.0,0.0,0.0,0.0,0.0,0.1,-1.1,2.46,0.9725,0.85,0.3533,2.0,0.6538,True,monoclinic,2/m,14,11.5821,2.878,0.7037
Hg4 Rb2,2,0.0,0.3333,0.0,0.0,0.0,0.0,0.0,0.0,0.0,0.6667,1.0,1.18,0.5563,0.85,0.4007,1.0,0.4714,True,orthorhombic,mmm,74,38.031,7.0828,0.7661
Ce2 S2,2,0.0,0.0,0.0,0.0,0.0,0.5,0.0,0.0,0.5,0.0,0.5,1.46,0.73,0.85,0.425,5.0,2.5,True,tetragonal,4/mmm,129,41.6009,3.4364,0.3736
Al3 Si2 Tb2,3,0.0,0.0,0.0,0.0,0.0,0.2857,0.2857,0.0,0.2857,0.0,1.0,1.9,0.7889,0.65,0.2605,5.0,2.2588,True,monoclinic,2/m,12,19.3183,5.5868,0.6117
O36 P12 Sn4,3,0.0,0.0,0.0,0.6923,0.0,0.0,0.0,0.0,0.0,0.0,-2.3846,1.48,0.606,0.85,0.2601,3.0,0.8427,True,orthorhombic,222,19,13.8577,3.278,0.9726
La4 Pb2 S8,3,0.0,0.0,0.0,0.0,0.0,0.2857,0.0,0.0,0.2857,0.2857,0.0,1.48,0.6515,0.95,0.4478,5.0,2.2315,True,tetragonal,-42m,122,24.4464,5.951,1.0
Li7 O16 Ti7,3,0.0,0.2333,0.0,0.5333,0.0,0.0,0.0,0.0,0.0,0.2333,0.1,2.46,1.1043,0.85,0.4119,2.0,0.8459,True,trigonal,3m,160,9.9604,3.5546,0.4965
Ga2 Li4,2,0.0,0.6667,0.0,0.0,0.0,0.0,0.0,0.0,0.0,0.0,1.6667,0.83,0.3913,0.15,0.0707,2.0,0.9428,True,orthorhombic,mmm,63,15.5231,2.9811,0.8407
Ce1 Hg1,2,0.0,0.0,0.0,0.0,0.0,0.5,0.0,0.0,0.5,0.5,2.0,0.88,0.44,0.35,0.175,2.0,1.0,True,cubic,m-3m,221,28.0692,10.0779,1.0
O6 Tl8,2,0.0,0.0,0.0,0.4286,0.0,0.0,0.0,0.0,0.0,0.0,-0.2857,1.82,0.9007,1.3,0.6433,4.0,1.9795,True,monoclinic,2/m,11,21.5935,9.5085,0.3139
Bi4 O48 P16,3,0.0,0.0,0.0,0.7059,0.0,0.0,0.0,0.0,0.0,0.0,-1.9412,1.42,0.5862,1.0,0.2703,4.0,0.9772,True,orthorhombic,222,20,15.8305,3.2386,0.4459
Au4 Cs4 O4,3,0.0,0.3333,0.0,0.3333,0.0,0.0,0.0,0.0,0.0,0.3333,0.6667,2.65,1.1003,2.0,0.825,4.0,1.8856,True,tetragonal,4/mmm,139,28.5022,6.7168,0.789
Hf1 Te2,2,0.0,0.0,0.0,0.6667,0.0,0.0,0.6667,0.0,0.0,0.3333,0.0,0.8,0.3771,0.15,0.0707,1.0,0.4714,True,trigonal,-3m,164,31.4433,7.6345,0.5721
O20 Te4 U4,3,0.1429,0.0,0.0,0.8571,0.0,0.0,0.1429,0.0,0.1429,0.0,-0.8571,2.06,0.7917,1.15,0.4503,7.0,2.499,True,orthorhombic,mmm,57,16.1706,6.5372,0.5316
Cd16 Na4 O48 P12,4,0.0,0.05,0.0,0.6,0.0,0.0,0.0,0.0,0.0,0.2,-1.2,2.51,0.8499,1.2,0.4247,3.0,1.1662,True,orthorhombic,mmm,62,13.3696,4.7045,0.4437