formula,numberOfSpecies,fracActinoid,fracAlkali,fracAlkaline,fracChalcogen,fracHalogen,fracLanthanoid,fracMetalloid,fracNobleGas,fracRareEarth,fracTransitionMetal,electronsPerAtom,electronegativityRange,electronegativityStd,radiiRange,radiiStd,rowRange,rowStd,ordered,crystalSystem,pointGroup,spaceGroupNumber,volumePerSite,density,c_a
Ag3 Sn3 Tm3,3,0.0,0.0,0.0,0.0,0.0,0.3333,0.0,0.0,0.3333,0.3333,0.0,0.71,0.3279,0.3,0.1225,3.0,1.4142,True,hexagonal,-6m2,189,23.3242,9.386,1.6439
Ba4 Cl16 Zn4,3,0.0,0.0,0.1667,0.0,0.6667,0.0,0.0,0.0,0.0,0.1667,0.0,2.27,0.9176,1.15,0.4223,3.0,1.1055,True,orthorhombic,mmm,60,29.7494,3.2053,0.4227
Hf23 Se25,2,0.0,0.0,0.0,0.5208,0.0,0.0,0.0,0.0,0.0,0.4792,0.875,1.25,0.6245,0.4,0.1998,2.0,0.9991,True,triclinic,1,1,20.3343,10.3426,2.2294
Fe2 Na1 O3,3,0.0,0.1667,0.0,0.5,0.0,0.0,0.0,0.0,0.0,0.3333,-0.1667,2.51,1.001,1.2,0.4853,2.0,0.8975,True,trigonal,-3m,164,10.9447,4.6194,0.3975
Li2 Nb4 O24 P6,4,0.0,0.0556,0.0,0.6667,0.0,0.0,0.0,0.0,0.0,0.1111,-1.2222,2.46,0.8191,0.85,0.322,3.0,0.9574,True,triclinic,-1,2,14.1791,3.1078,0.954
Ag2 S6 Ta2,3,0.0,0.0,0.0,0.0,0.0,0.0,0.0,0.0,0.0,0.4,0.0,1.08,0.445,0.6,0.2615,3.0,1.2649,True,orthorhombic,mmm,63,18.9633,6.7428,0.4357
As4 O16 Zn6,3,0.0,0.0,0.0,0.6154,0.0,0.0,0.1538,0.0,0.0,0.2308,-1.2308,1.79,0.7844,0.75,0.3316,2.0,0.973,True,monoclinic,2/m,14,14.0455,4.3113,0.6161
Li4 O8 Pr4,3,0.0,0.25,0.0,0.5,0.0,0.25,0.0,0.0,0.25,0.0,0.0,2.46,1.1937,1.25,0.5437,6.0,2.5981,True,monoclinic,2/m,14,12.931,5.7738,0.9497
La16 Se24,2,0.0,0.0,0.0,0.6,0.0,0.4,0.0,0.0,0.4,0.4,0.0,1.45,0.7104,0.8,0.3919,4.0,1.9596,True,tetragonal,-42m,122,28.2277,6.0555,2.5951
Dy2 H8 I6 O22,4,0.0,0.0,0.0,0.5789,0.1579,0.0526,0.0,0.0,0.0526,0.0,-1.3684,2.22,0.6543,1.5,0.4285,7.0,1.7864,True,triclinic,-1,2,13.6367,4.6352,0.6562
Cu4 Gd2 O8,3,0.0,0.0,0.0,0.5714,0.0,0.1429,0.0,0.0,0.1429,0.2857,-0.1429,2.24,0.9038,1.2,0.4665,6.0,2.0603,True,monoclinic,2/m,15,11.423,7.234,0.9092
F36 Na4 Np8,3,0.1667,0.0833,0.0,0.0,0.75,0.0,0.0,0.0,0.1667,0.0,0.1667,3.05,1.2008,1.3,0.5486,7.0,2.586,True,orthorhombic,mmm,62,14.0313,6.5876,0.6224
Ca1 Ge2 Ir2,3,0.0,0.0,0.2,0.0,0.0,0.0,0.4,0.0,0.0,0.4,0.0,1.2,0.4501,0.55,0.2049,2.0,0.9798,True,tetragonal,4/mmm,139,18.436,10.2643,0.6974
Na2 O24 P6 Ti4,4,0.0,0.0556,0.0,0.6667,0.0,0.0,0.0,0.0,0.0,0.1111,-1.3333,2.51,0.8362,1.2,0.3583,2.0,0.6849,True,trigonal,-3m,167,13.1112,2.84,1.0
Fe2 K2 Se4,3,0.0,0.25,0.0,0.5,0.0,0.0,0.0,0.0,0.0,0.25,-0.25,1.73,0.709,1.05,0.4308,0.0,0.0,True,monoclinic,2/m,15,27.8375,3.7709,0.8133
Rb1 Se6 Th2,3,0.2222,0.1111,0.0,0.6667,0.0,0.0,0.0,0.0,0.2222,0.0,-0.3333,1.73,0.6774,1.2,0.4204,5.0,2.0428,True,orthorhombic,mmm,71,30.5593,6.1783,0.3535
Cl2 Co2 O5 Sr3,4,0.0,0.0,0.25,0.4167,0.1667,0.0,0.0,0.0,0.0,0.1667,-0.1667,2.49,1.0514,1.4,0.563,3.0,1.2332,True,tetragonal,4/mmm,139,15.6631,4.6968,0.3085
Al18 Mn6 Si2,3,0.0,0.0,0.0,0.0,0.0,0.0,0.0769,0.0,0.0,0.2308,2.2308,0.35,0.085,0.3,0.0799,1.0,0.4213,True,hexagonal,6/mmm,194,14.3187,3.8871,0.9804
Ge2 Mn2 Sr2,3,0.0,0.0,0.3333,0.0,0.0,0.0,0.3333,0.0,0.0,0.3333,0.0,1.06,0.434,0.75,0.324,1.0,0.4714,True,tetragonal,4/mmm,129,24.1185,4.9387,0.5946
Ba2 Eu1 Nb1 O6,4,0.0,0.0,0.2,0.6,0.0,0.1,0.0,0.0,0.1,0.1,-0.1,3.44,1.321,1.55,0.6623,6.0,2.1932,True,cubic,m-3m,225,16.1097,6.3446,1.0
Te1 Zn1,2,0.0,0.0,0.0,0.5,0.0,0.0,0.5,0.0,0.0,0.5,0.0,0.45,0.225,0.05,0.025,1.0,0.5,True,cubic,m-3m,225,24.0797,6.655,1.0
Ge2 Ir2 U1,3,0.2,0.0,0.0,0.0,0.0,0.0,0.4,0.0,0.2,0.4,0.8,0.82,0.3022,0.5,0.1855,5.0,1.833,True,tetragonal,4/mmm,139,17.8267,14.3029,0.6876
Na4 O16 Si4 Sm4,4,0.0,0.1429,0.0,0.5714,0.0,0.1429,0.1429,0.0,0.1429,0.0,-1.1429,2.51,1.0769,1.25,0.5358,6.0,2.0304,True,tetragonal,4/m,87,13.6896,4.5995,0.6093
Ba9 O18 Sb6,3,0.0,0.0,0.2727,0.5455,0.0,0.0,0.1818,0.0,0.0,0.0,-1.0909,2.55,1.1071,1.55,0.6733,4.0,1.8227,True,triclinic,-1,2,21.3419,5.3156,0.5071
I24 In6 Rb6,3,0.0,0.1667,0.0,0.0,0.6667,0.0,0.0,0.0,0.0,0.0,0.0,1.84,0.6984,0.95,0.3472,0.0,0.0,True,trigonal,3m,161,52.8683,3.7058,1.0
Cl1 Cu1,2,0.0,0.0,0.0,0.0,0.5,0.0,0.0,0.0,0.0,0.5,0.5,1.26,0.63,0.35,0.175,1.0,0.5,True,cubic,-43m,216,19.7337,4.1653,1.0
Ba6 Fe2 N6,3,0.0,0.0,0.4286,0.0,0.0,0.0,0.0,0.0,0.0,0.1429,-0.1429,2.15,0.9964,1.5,0.6944,4.0,1.8516,True,hexagonal,6/m,176,23.2756,5.1962,1.4526
Co2 O2,2,0.0,0.0,0.0,0.5,0.0,0.0,0.0,0.0,0.0,0.5,0.0,1.56,0.78,0.75,0.375,2.0,1.0,True,hexagonal,6mm,186,12.185,5.1058,1.0
C1 Lu3 Tl1,3,0.0,0.0,0.0,0.0,0.0,0.6,0.0,0.0,0.6,0.0,1.2,1.28,0.4959,1.2,0.4389,4.0,1.6,True,cubic,m-3m,221,21.91,11.2364,1.0
Ga6 Ni9 Y3,3,0.0,0.0,0.0,0.0,0.0,0.0,0.0,0.0,0.0,0.6667,2.5,0.69,0.2463,0.5,0.1766,1.0,0.3727,True,hexagonal,6/mmm,191,15.0667,7.4289,2.2773
C3 H3 O6 Sm1,4,0.0,0.0,0.0,0.4615,0.0,0.0769,0.0,0.0,0.0769,0.0,-1.8462,2.27,0.7002,1.6,0.3864,7.0,1.7166,True,trigonal,3m,160,10.21,3.5707,1.0
B2 Br15 Tb10,3,0.0,0.0,0.0,0.0,0.5556,0.3704,0.0741,0.0,0.3704,0.0,0.7778,2.96,1.3971,0.9,0.3162,6.0,2.1082,True,triclinic,-1,2,29.7316,5.8115,0.8483
Cd1 Se1,2,0.0,0.0,0.0,0.5,0.0,0.0,0.0,0.0,0.0,0.5,0.0,0.86,0.43,0.4,0.2,1.0,0.5,True,cubic,m-3m,225,23.7378,6.6935,1.0
Cd32 I24 Sb16,3,0.0,0.0,0.0,0.0,0.3333,0.0,0.2222,0.0,0.0,0.4444,-0.1111,0.97,0.424,0.15,0.0671,0.0,0.0,True,cubic,m-3,205,37.2772,5.3152,1.0
Ba9 Nb10 O30,3,0.0,0.0,0.1837,0.6122,0.0,0.0,0.0,0.0,0.0,0.2041,0.1633,2.55,1.0831,1.55,0.6155,4.0,1.7208,True,triclinic,-1,2,14.4343,6.2099,2.2338
Ba6 Cu6 N6,3,0.0,0.0,0.3333,0.0,0.0,0.0,0.0,0.0,0.0,0.3333,0.3333,2.15,0.8783,1.5,0.6128,4.0,1.633,True,monoclinic,2/m,15,21.1607,5.6207,0.586
Ca16 Hg36,2,0.0,0.0,0.3077,0.0,0.0,0.0,0.0,0.0,0.0,0.6923,1.3077,1.0,0.4615,0.3,0.1385,2.0,0.9231,True,cubic,-43m,215,26.6812,9.4102,1.0
H8 La4 Ni4 Sn4,4,0.0,0.0,0.0,0.0,0.0,0.2,0.0,0.0,0.2,0.4,-0.2,1.1,0.405,1.7,0.6841,7.0,2.6382,True,orthorhombic,mmm,62,14.8581,7.1152,0.5124
O4 Ti2,2,0.0,0.0,0.0,0.6667,0.0,0.0,0.0,0.0,0.0,0.3333,0.0,1.9,0.8957,0.8,0.3771,2.0,0.9428,True,monoclinic,2/m,15,11.6354,3.7993,0.7045
Ba4 P4 S12,3,0.0,0.0,0.2,0.0,0.0,0.0,0.0,0.0,0.0,0.0,-1.4,1.69,0.6547,1.15,0.46,3.0,1.2,True,monoclinic,2/m,14,27.2568,3.2227,0.683
Cl8 Eu4,2,0.0,0.0,0.0,0.0,0.6667,0.3333,0.0,0.0,0.3333,0.0,0.0,3.16,1.4896,0.85,0.4007,5.0,2.357,True,orthorhombic,mmm,62,25.9142,4.7604,0.5042
Al3 La1 Pd2,3,0.0,0.0,0.0,0.0,0.0,0.1667,0.0,0.0,0.1667,0.5,2.6667,1.1,0.3833,0.7,0.2478,5.0,1.8028,True,hexagonal,6/mmm,191,18.8706,6.3458,1.3025
Pu16 Se24,2,0.4,0.0,0.0,0.6,0.0,0.0,0.0,0.0,0.4,0.0,0.4,1.27,0.6222,0.6,0.2939,5.0,2.4495,True,tetragonal,-42m,122,24.9233,9.6592,2.6051
Li4 Ni4 O8,3,0.0,0.25,0.0,0.5,0.0,0.0,0.0,0.0,0.0,0.25,-0.25,2.46,1.0503,0.85,0.4016,2.0,0.866,True,monoclinic,2/m,12,9.2853,4.3651,0.2776
Al1 Co2 Hf1,3,0.0,0.0,0.0,0.0,0.0,0.0,0.0,0.0,0.0,0.75,2.75,0.58,0.2391,0.3,0.109,3.0,1.0897,True,cubic,m-3m,225,13.7261,9.7791,1.0
B2 Er1 Rh3,3,0.0,0.0,0.0,0.0,0.0,0.1667,0.3333,0.0,0.1667,0.5,3.0,1.04,0.3678,0.9,0.3162,6.0,2.0616,True,orthorhombic,mmm,65,13.2672,10.38,0.5753
Br2 N2 Ti2,3,0.0,0.0,0.0,0.0,0.3333,0.0,0.0,0.0,0.0,0.3333,0.0,1.5,0.689,0.75,0.3118,2.0,0.9428,True,orthorhombic,mmm,59,19.9198,3.9396,0.3781
Np1 Os2 Si2,3,0.2,0.0,0.0,0.0,0.0,0.0,0.4,0.0,0.2,0.4,1.0,0.84,0.3069,0.65,0.2375,6.0,2.245,True,tetragonal,4/mmm,139,16.3547,13.6791,0.7341
B3 O15 P3 Pb3,4,0.0,0.0,0.0,0.625,0.0,0.0,0.125,0.0,0.0,0.0,-1.0,1.4,0.6111,1.2,0.3929,4.0,1.317,True,trigonal,32,152,12.3182,5.5435,1.0109
P8 Zr4,2,0.0,0.0,0.0,0.0,0.0,0.0,0.0,0.0,0.0,0.3333,-0.6667,0.86,0.4054,0.55,0.2593,2.0,0.9428,True,orthorhombic,mmm,62,16.8916,5.0192,0.3997
Ge2 Mg2 Mn2,3,0.0,0.0,0.3333,0.0,0.0,0.0,0.3333,0.0,0.0,0.3333,0.0,0.7,0.2904,0.25,0.1027,1.0,0.4714,True,tetragonal,4/mmm,129,16.6267,5.0563,0.595
Ag3 Al2 La1,3,0.0,0.0,0.0,0.0,0.0,0.1667,0.0,0.0,0.1667,0.6667,2.0,0.83,0.2982,0.7,0.2405,5.0,1.675,True,hexagonal,6/mmm,191,20.7689,6.8823,1.3617
Ba2 Nb1 O6 Yb1,4,0.0,0.0,0.2,0.6,0.0,0.1,0.0,0.0,0.1,0.1,0.0,3.44,1.321,1.55,0.6518,6.0,2.1932,True,cubic,m-3m,225,15.7709,6.7028,1.0
O26 P8 Pb6,3,0.0,0.0,0.0,0.65,0.0,0.0,0.0,0.0,0.0,0.0,-1.6,1.25,0.5691,1.2,0.4247,4.0,1.4,True,triclinic,-1,2,14.5311,5.448,0.7216
N4 Sr4,2,0.0,0.0,0.5,0.0,0.0,0.0,0.0,0.0,0.0,0.0,-0.5,2.09,1.045,1.35,0.675,3.0,1.5,True,monoclinic,2/m,12,21.8906,3.8545,0.5345
Sn10 Sr6,2,0.0,0.0,0.375,0.0,0.0,0.0,0.0,0.0,0.0,0.0,-1.75,1.01,0.489,0.55,0.2663,0.0,0.0,True,orthorhombic,mmm,63,32.1226,5.5339,0.6281
F2 Hg1,2,0.0,0.0,0.0,0.0,0.6667,0.0,0.0,0.0,0.0,0.3333,-0.3333,1.98,0.9334,1.0,0.4714,4.0,1.8856,True,cubic,m-3m,225,15.0526,8.7733,1.0
Cr3 P3 Ti3,3,0.0,0.0,0.0,0.0,0.0,0.0,0.0,0.0,0.0,0.6667,1.3333,0.65,0.2824,0.4,0.1886,1.0,0.4714,True,hexagonal,-6m2,189,12.8114,5.6528,1.9789
Au2 K4 P2,3,0.0,0.5,0.0,0.0,0.0,0.0,0.0,0.0,0.0,0.25,0.5,1.72,0.7823,1.2,0.5272,3.0,1.0897,True,orthorhombic,mmm,63,29.1544,4.3591,0.9728
As4 O20 P4,3,0.0,0.0,0.0,0.7143,0.0,0.0,0.1429,0.0,0.0,0.0,-2.2857,1.26,0.567,0.55,0.2183,2.0,0.7284,True,orthorhombic,222,19,11.7754,3.7449,0.5387
Ce4 O16 P4,3,0.0,0.0,0.0,0.6667,0.0,0.1667,0.0,0.0,0.1667,0.0,-1.3333,2.32,0.8964,1.25,0.4598,6.0,2.1922,True,monoclinic,2/m,14,13.1317,4.9546,0.8994
Cl1 K1,2,0.0,0.5,0.0,0.0,0.5,0.0,0.0,0.0,0.0,0.0,0.0,2.34,1.17,1.2,0.6,1.0,0.5,True,cubic,m-3m,225,32.6957,1.8931,1.0
Cu3 O5 Sr2,3,0.0,0.0,0.2,0.5,0.0,0.0,0.0,0.0,0.0,0.3,0.0,2.49,1.0148,1.4,0.5529,3.0,1.249,True,orthorhombic,mmm,71,12.7822,5.7924,0.3563
Li4 O20 P4 V4,4,0.0,0.125,0.0,0.625,0.0,0.0,0.0,0.0,0.0,0.125,-0.875,2.46,0.9408,0.85,0.3437,2.0,0.696,True,triclinic,-1,2,10.9105,3.2124,0.7172
Co2 La1 Si2,3,0.0,0.0,0.0,0.0,0.0,0.2,0.4,0.0,0.2,0.6,-0.2,0.8,0.3161,0.85,0.3108,5.0,1.8547,True,tetragonal,4/mmm,139,16.1423,6.4384,0.682
K6 O16 P4 Sm2,4,0.0,0.2143,0.0,0.5714,0.0,0.0714,0.0,0.0,0.0714,0.0,-1.1429,2.62,1.1173,1.6,0.6661,6.0,1.6036,True,monoclinic,2/m,11,14.8094,3.665,0.5986
Al6 C6 Sc2,3,0.0,0.0,0.0,0.0,0.0,0.0,0.0,0.0,0.0,0.1429,-0.0,1.19,0.5028,0.9,0.3356,2.0,0.6999,True,hexagonal,6/mmm,194,11.7366,3.273,0.2002
Ge6 Pr10,2,0.0,0.0,0.0,0.0,0.0,0.625,0.375,0.0,0.625,0.0,0.375,0.88,0.426,0.6,0.2905,4.0,1.9365,True,hexagonal,6/mmm,193,29.3384,6.5263,1.3118
Cd1 Cu2 Se4 Sn1,4,0.0,0.0,0.0,0.5,0.0,0.0,0.0,0.0,0.0,0.375,-0.75,0.86,0.3513,0.4,0.1495,1.0,0.433,True,tetragonal,-42m,121,25.3538,5.5184,0.8271
Lu2 Mn10,2,0.0,0.0,0.0,0.0,0.0,0.1667,0.0,0.0,0.1667,0.8333,2.1667,0.28,0.1043,0.35,0.1304,2.0,0.7454,True,hexagonal,6mm,186,13.4815,9.2308,0.6088
Al6 Cl2 Na8 O24 Si6,5,0.0,0.1739,0.0,0.5217,0.0435,0.0,0.1304,0.0,0.0,0.0,-1.0435,2.51,1.0277,1.2,0.4513,1.0,0.4995,True,cubic,-43m,218,15.7108,2.227,1.0
Cr1 Na1 S2,3,0.0,0.25,0.0,0.0,0.0,0.0,0.0,0.0,0.0,0.25,0.0,1.65,0.6924,0.8,0.3317,1.0,0.433,True,trigonal,-3m,166,18.1367,3.1842,1.0
Hg8 O48 P16,3,0.0,0.0,0.0,0.6667,0.0,0.0,0.0,0.0,0.0,0.1111,-1.8889,1.44,0.6213,0.9,0.2998,4.0,1.2472,True,orthorhombic,mmm,61,14.2053,4.6568,0.5221
Ga6 Nb10,2,0.0,0.0,0.0,0.0,0.0,0.0,0.0,0.0,0.0,0.625,4.25,0.21,0.1017,0.15,0.0726,1.0,0.4841,True,tetragonal,4/mmm,140,17.6829,7.9081,0.6427
N1 Ta1,2,0.0,0.0,0.0,0.0,0.0,0.0,0.0,0.0,0.0,0.5,1.0,1.54,0.77,0.8,0.4,4.0,2.0,True,hexagonal,-6m2,187,10.9636,14.7639,1.0181
Ho1 Ni2 Si2,3,0.0,0.0,0.0,0.0,0.0,0.2,0.4,0.0,0.2,0.4,-0.2,0.68,0.27,0.65,0.2379,5.0,1.8547,True,tetragonal,4/mmm,139,14.8505,7.5698,0.7177
Mn6 Si12 Zr6,3,0.0,0.0,0.0,0.0,0.0,0.0,0.5,0.0,0.0,0.5,-0.5,0.57,0.2428,0.45,0.1949,2.0,0.8292,True,orthorhombic,mmm,71,14.6765,5.7231,0.5233
Cu2 La2 Sn2,3,0.0,0.0,0.0,0.0,0.0,0.3333,0.0,0.0,0.3333,0.6667,0.3333,0.86,0.392,0.6,0.2625,4.0,1.6997,True,hexagonal,6/mmm,194,25.2495,7.0404,0.5604
Ba2 N14 Si8 Y2,4,0.0,0.0,0.0769,0.0,0.0,0.0,0.3077,0.0,0.0,0.0769,-2.4615,2.15,0.7614,1.5,0.469,4.0,1.2308,True,hexagonal,6mm,186,12.3472,4.5169,0.614
Cu4 O4 Sr2,3,0.0,0.0,0.2,0.4,0.0,0.0,0.0,0.0,0.0,0.4,0.4,2.49,0.9735,1.4,0.5297,3.0,1.2,True,tetragonal,4/mmm,141,15.0291,5.4517,0.8783
Gd2 In2 Pt4,3,0.0,0.0,0.0,0.0,0.0,0.25,0.0,0.0,0.25,0.5,2.5,1.08,0.4451,0.45,0.185,3.0,1.0897,True,hexagonal,6/mmm,194,20.9903,13.0973,0.5065
Ir3 Se8,2,0.0,0.0,0.0,0.7273,0.0,0.0,0.0,0.0,0.0,0.2727,-0.6364,0.35,0.1559,0.2,0.0891,2.0,0.8907,True,trigonal,-3,148,20.2417,9.0115,1.0
In4 Pr12 Se24,3,0.0,0.0,0.0,0.6,0.0,0.3,0.0,0.0,0.3,0.0,0.0,1.42,0.6412,0.7,0.317,4.0,1.7916,True,orthorhombic,mmm,58,26.9552,6.23,0.2351
Cl8 Mg2 Na4,3,0.0,0.2857,0.1429,0.0,0.5714,0.0,0.0,0.0,0.0,0.0,0.0,2.23,1.0475,0.8,0.3586,0.0,0.0,True,orthorhombic,mmm,55,23.0377,2.184,0.3207
Mn4 O32 P10,3,0.0,0.0,0.0,0.6957,0.0,0.0,0.0,0.0,0.0,0.087,-1.8696,1.89,0.6783,0.8,0.2568,2.0,0.6419,True,monoclinic,2/m,13,14.0299,2.6797,3.8273
As2 Ru2 Sr1,3,0.0,0.0,0.2,0.0,0.0,0.0,0.4,0.0,0.0,0.4,0.4,1.25,0.4961,0.85,0.3172,1.0,0.4899,True,tetragonal,4/mmm,139,20.1555,7.2435,0.6585
C4 N8 Sr4,3,0.0,0.0,0.25,0.0,0.0,0.0,0.0,0.0,0.0,0.0,-2.0,2.09,0.8579,1.35,0.5777,3.0,1.299,True,orthorhombic,mmm,62,17.0907,3.1005,0.3184
As1 Th1,2,0.5,0.0,0.0,0.0,0.0,0.0,0.5,0.0,0.5,0.0,0.5,0.88,0.44,0.65,0.325,5.0,2.5,True,cubic,m-3m,221,24.3615,10.4615,1.0
C2 Si2 U3,3,0.4286,0.0,0.0,0.0,0.0,0.0,0.2857,0.0,0.4286,0.0,0.2857,1.17,0.485,1.05,0.447,7.0,3.2388,True,tetragonal,4/mmm,139,15.956,11.8086,0.4039
B30 Na2,2,0.0,0.0625,0.0,0.0,0.0,0.0,0.9375,0.0,0.0,0.0,2.875,1.11,0.2687,0.95,0.23,1.0,0.2421,True,orthorhombic,mmm,74,7.9211,2.4259,0.8048
Cu2 Ho2 P4,3,0.0,0.0,0.0,0.0,0.0,0.25,0.0,0.0,0.25,0.25,-0.25,0.96,0.3921,0.75,0.3092,5.0,2.0616,True,tetragonal,4/mmm,129,16.7045,7.2175,0.3827
Ru1 Ta1,2,0.0,0.0,0.0,0.0,0.0,0.0,0.0,0.0,0.0,1.0,4.0,0.7,0.35,0.15,0.075,1.0,0.5,True,tetragonal,4/mmm,123,16.0788,14.5627,0.8979
K2 O8 Pb1 S2,4,0.0,0.1538,0.0,0.6154,0.0,0.0,0.0,0.0,0.0,0.0,-1.2308,2.62,0.9377,1.6,0.6076,4.0,1.1867,True,trigonal,-3m,166,14.7642,4.1313,1.0
Ce1 Ru1 Si3,3,0.0,0.0,0.0,0.0,0.0,0.2,0.6,0.0,0.2,0.2,-1.2,1.08,0.3612,0.75,0.2905,5.0,1.9596,True,tetragonal,4mm,107,17.5223,6.1683,0.7208
Pd3 Pu1,2,0.25,0.0,0.0,0.0,0.0,0.0,0.0,0.0,0.25,0.75,2.5,0.92,0.3984,0.35,0.1516,4.0,1.7321,True,cubic,m-3m,221,17.9179,13.05,1.0
Cl6 Pt1 S2,3,0.0,0.0,0.0,0.0,0.6667,0.0,0.0,0.0,0.0,0.1111,-0.8889,0.88,0.3308,0.35,0.11,3.0,0.9428,True,triclinic,-1,2,30.4485,2.8597,0.5828
Co3 Ge3 Ti3,3,0.0,0.0,0.0,0.0,0.0,0.0,0.3333,0.0,0.0,0.6667,0.6667,0.47,0.1982,0.15,0.0624,0.0,0.0,True,hexagonal,-6m2,189,13.8123,7.1909,1.6476
Na4 O8 S4,3,0.0,0.25,0.0,0.5,0.0,0.0,0.0,0.0,0.0,0.0,-1.25,2.51,1.0248,1.2,0.4899,1.0,0.5,True,monoclinic,2/m,13,16.0587,2.2504,0.9614
Cu4 Li8 O16 P4,4,0.0,0.25,0.0,0.5,0.0,0.0,0.0,0.0,0.0,0.125,-0.875,2.46,1.0372,0.85,0.3795,2.0,0.696,True,monoclinic,m,6,10.8034,3.3123,2.1159
P8,1,0.0,0.0,0.0,0.0,0.0,0.0,0.0,0.0,0.0,0.0,-3.0,0.0,0.0,0.0,0.0,0.0,0.0,True,monoclinic,2/m,12,34.5941,1.4868,0.8805
Al2 N2,2,0.0,0.0,0.0,0.0,0.0,0.0,0.0,0.0,0.0,0.0,0.0,1.43,0.715,0.6,0.3,1.0,0.5,True,hexagonal,6mm,186,10.6318,3.2009,0.6236
Co4 Ge8,2,0.0,0.0,0.0,0.0,0.0,0.0,0.6667,0.0,0.0,0.3333,-2.0,0.13,0.0613,0.1,0.0471,0.0,0.0,True,orthorhombic,mmm,64,14.6728,7.7037,0.9215
Ba6 Sn10,2,0.0,0.0,0.375,0.0,0.0,0.0,0.0,0.0,0.0,0.0,-1.75,1.07,0.518,0.7,0.3389,1.0,0.4841,True,orthorhombic,mmm,63,35.986,5.7999,0.6367
B2 La2 Ni8,3,0.0,0.0,0.0,0.0,0.0,0.1667,0.1667,0.0,0.1667,0.8333,2.3333,0.94,0.3152,1.1,0.3184,6.0,1.7951,True,hexagonal,6/mmm,191,13.1076,8.1182,0.7284
Ag25 Bi3 O18,3,0.0,0.0,0.0,0.3913,0.0,0.0,0.0,0.0,0.0,0.5435,-0.0435,1.51,0.7326,1.0,0.488,4.0,1.5355,True,trigonal,-3,147,16.652,7.8294,1.8321
S4 Sn2,2,0.0,0.0,0.0,0.0,0.0,0.0,0.0,0.0,0.0,0.0,-2.6667,0.62,0.2923,0.45,0.2121,2.0,0.9428,True,hexagonal,6mm,186,26.3482,3.841,0.2777
F6 O2 Rh1,3,0.0,0.0,0.0,0.2222,0.6667,0.0,0.0,0.0,0.0,0.1111,-0.7778,1.7,0.539,0.85,0.2625,3.0,0.9428,True,triclinic,-1,2,15.4817,2.9662,1.0033
As2 Cs1 Fe2,3,0.0,0.2,0.0,0.0,0.0,0.0,0.4,0.0,0.0,0.4,-0.2,1.39,0.5106,1.45,0.5417,2.0,0.8,True,tetragonal,4/mmm,139,22.2771,5.8803,0.4647
K12 P44,2,0.0,0.2143,0.0,0.0,0.0,0.0,0.0,0.0,0.0,0.0,-2.1429,1.37,0.5621,1.2,0.4924,1.0,0.4103,True,orthorhombic,mmm,60,29.0118,1.8725,0.7808
K2 O4 Sb2,3,0.0,0.25,0.0,0.5,0.0,0.0,0.25,0.0,0.0,0.0,-1.5,2.62,1.0928,1.6,0.6674,3.0,1.299,True,monoclinic,2/m,15,20.1025,3.9827,0.9641
Mn4 Si4,2,0.0,0.0,0.0,0.0,0.0,0.0,0.5,0.0,0.0,0.5,-1.0,0.35,0.175,0.3,0.15,1.0,0.5,True,cubic,23,198,11.558,5.964,1.0
Cu4 Ge4 Tb3,3,0.0,0.0,0.0,0.0,0.0,0.2727,0.3636,0.0,0.2727,0.3636,0.0909,2.01,0.8719,0.5,0.2049,4.0,1.7814,True,orthorhombic,mmm,71,17.8759,8.6265,0.525
Ni7 O24 P6,3,0.0,0.0,0.0,0.6486,0.0,0.0,0.0,0.0,0.0,0.1892,-1.4054,1.53,0.6738,0.75,0.2994,2.0,0.7917,True,monoclinic,m,8,12.8649,3.4211,1.3528
Al4 Be6 O36 Si12,4,0.0,0.0,0.1034,0.6207,0.0,0.0,0.2069,0.0,0.0,0.0,-1.6552,1.87,0.8222,0.65,0.2527,1.0,0.4469,True,hexagonal,6/mmm,192,11.9902,2.5669,1.0028
Ga1 Nd1 O3,3,0.0,0.0,0.0,0.6,0.0,0.2,0.0,0.0,0.2,0.0,0.0,2.3,0.9857,1.25,0.5083,6.0,2.3324,True,cubic,m-3m,221,19.0114,4.5762,1.0
Nb6 S12 V2,3,0.0,0.0,0.0,0.0,0.0,0.0,0.0,0.0,0.0,0.4,0.8,0.98,0.4765,0.45,0.21,2.0,0.9,True,hexagonal,622,182,17.8968,4.8438,0.4753
Cu2 Dy1 In1,3,0.0,0.0,0.0,0.0,0.0,0.25,0.0,0.0,0.25,0.5,2.5,0.68,0.2814,0.4,0.1658,4.0,1.6394,True,cubic,m-3m,225,18.1846,9.2323,1.0
Cu6 Sn2,2,0.0,0.0,0.0,0.0,0.0,0.0,0.0,0.0,0.0,0.75,0.5,0.06,0.026,0.1,0.0433,1.0,0.433,True,hexagonal,6/mmm,194,14.454,8.8848,1.2738
Li2 S4 Sb2,3,0.0,0.25,0.0,0.0,0.0,0.0,0.25,0.0,0.0,0.0,-1.5,1.6,0.6532,0.45,0.225,3.0,1.0897,True,tetragonal,4/mmm,141,20.3908,3.9258,1.1413
F6 K1 Rb2 Rh1,4,0.0,0.3,0.0,0.0,0.6,0.0,0.0,0.0,0.0,0.1,0.0,3.16,1.4264,1.85,0.8094,3.0,1.3748,True,cubic,m-3m,225,18.709,3.7893,1.0
As2 Be2 Na2,3,0.0,0.3333,0.3333,0.0,0.0,0.0,0.3333,0.0,0.0,0.0,-0.0,1.25,0.5104,0.75,0.3325,2.0,0.8165,True,hexagonal,6/mmm,194,19.1568,3.0894,0.4255
F6 Mg2 Na2,3,0.0,0.2,0.2,0.0,0.6,0.0,0.0,0.0,0.0,0.0,0.0,3.05,1.4063,1.3,0.5713,1.0,0.4899,True,orthorhombic,mm2,36,11.4855,3.0156,0.4077
Cu18 Mg4 Sm2,3,0.0,0.0,0.1667,0.0,0.0,0.0833,0.0,0.0,0.0833,0.75,2.0833,0.73,0.2777,0.5,0.1419,5.0,1.2134,True,hexagonal,6/mmm,194,14.7773,7.2188,0.311
Cu1,1,0.0,0.0,0.0,0.0,0.0,0.0,0.0,0.0,0.0,1.0,2.0,0.0,0.0,0.0,0.0,0.0,0.0,True,cubic,m-3m,225,11.8242,8.9241,1.0
Li2 O16 P4 V2,4,0.0,0.0833,0.0,0.6667,0.0,0.0,0.0,0.0,0.0,0.0833,-1.3333,2.46,0.8482,0.85,0.3062,2.0,0.6236,True,monoclinic,m,7,11.5223,2.9763,0.5899
O12 Pr4 Sr4,3,0.0,0.0,0.2,0.6,0.0,0.2,0.0,0.0,0.2,0.0,-0.2,2.49,1.1771,1.4,0.6508,6.0,2.4,True,orthorhombic,mmm,62,17.5179,5.2424,0.7442
C1 In1 Pr3,3,0.0,0.0,0.0,0.0,0.0,0.6,0.0,0.0,0.6,0.0,1.6,1.42,0.5625,1.15,0.4454,6.0,2.4,True,cubic,m-3m,221,39.6571,4.6022,1.0
Au1 Yb1,2,0.0,0.0,0.0,0.0,0.0,0.5,0.0,0.0,0.5,0.5,3.0,2.54,1.27,0.4,0.2,2.0,1.0,True,cubic,m-3m,221,22.7852,13.4827,1.0
Cd2 Ge2 O6,3,0.0,0.0,0.0,0.6,0.0,0.0,0.2,0.0,0.0,0.2,-1.6,1.75,0.7855,0.95,0.4032,3.0,1.2649,True,trigonal,-3,148,11.8836,6.5129,1.0
Cu1 Se8 Sm5,3,0.0,0.0,0.0,0.5714,0.0,0.3571,0.0,0.0,0.3571,0.0714,0.0714,1.38,0.6477,0.7,0.3286,4.0,1.9166,True,tetragonal,-4,82,24.4114,7.0308,1.0
Al2 Si2 Tb1,3,0.0,0.0,0.0,0.0,0.0,0.2,0.4,0.0,0.2,0.0,0.2,1.9,0.7139,0.65,0.2396,5.0,2.0,True,trigonal,-3m,164,20.2342,4.4161,0.6387
S6 Yb4,2,0.0,0.0,0.0,0.0,0.0,0.4,0.0,0.0,0.4,0.0,0.0,2.58,1.2639,0.75,0.3674,5.0,2.4495,True,trigonal,-3m,167,26.9032,5.4597,1.0
Pr1 Pt5,2,0.0,0.0,0.0,0.0,0.0,0.1667,0.0,0.0,0.1667,0.8333,2.1667,1.15,0.4286,0.5,0.1863,2.0,0.7454,True,hexagonal,6/mmm,191,18.983,16.2751,1.2275
Al4 B4 Mg4 O16,4,0.0,0.0,0.1429,0.5714,0.0,0.0,0.1429,0.0,0.0,0.0,0.0,2.13,0.9057,0.9,0.3448,1.0,0.4518,True,orthorhombic,mmm,62,8.9357,3.3475,0.4372
Ba2 C4 F2 O12 Sm2,5,0.0,0.0,0.0909,0.5455,0.0909,0.0909,0.0,0.0,0.0909,0.0,-1.4545,3.09,0.9626,1.65,0.5419,6.0,1.9751,True,trigonal,-3m,166,12.9626,4.9692,1.0
O16 Sn8 Ti4,3,0.0,0.0,0.0,0.5714,0.0,0.0,0.0,0.0,0.0,0.1429,-1.7143,1.9,0.8121,0.85,0.4127,3.0,1.3553,True,tetragonal,4/mmm,135,15.9346,5.1998,0.6967
Ba8 O2 P4,3,0.0,0.0,0.5714,0.1429,0.0,0.0,0.0,0.0,0.0,0.0,0.0,2.55,0.933,1.55,0.647,4.0,1.6782,True,orthorhombic,mmm,64,32.7902,4.5379,0.8017
P8 S32 Tb8,3,0.0,0.0,0.0,0.0,0.0,0.1667,0.0,0.0,0.1667,0.0,-1.3333,2.58,0.9433,0.75,0.2795,5.0,1.8634,True,tetragonal,4/mmm,142,23.3901,3.7645,0.8837
Cd2 Gd1,2,0.0,0.0,0.0,0.0,0.0,0.3333,0.0,0.0,0.3333,0.6667,2.3333,0.49,0.231,0.25,0.1179,3.0,1.4142,True,trigonal,-3m,164,23.8789,8.8564,1.489