formula,numberOfSpecies,fracActinoid,fracAlkali,fracAlkaline,fracChalcogen,fracHalogen,fracLanthanoid,fracMetalloid,fracNobleGas,fracRareEarth,fracTransitionMetal,electronsPerAtom,electronegativityRange,electronegativityStd,radiiRange,radiiStd,rowRange,rowStd,ordered,crystalSystem,pointGroup,spaceGroupNumber,volumePerSite,density,c_a
Co2 O18 P6,3,0.0,0.0,0.0,0.6923,0.0,0.0,0.0,0.0,0.0,0.0769,-1.9231,1.56,0.6172,0.75,0.2402,2.0,0.6249,True,triclinic,-1,2,12.6017,2.9988,0.9657
Ba4 N16 Si10,3,0.0,0.0,0.1333,0.0,0.0,0.0,0.3333,0.0,0.0,0.0,-2.6667,2.15,0.7779,1.5,0.495,4.0,1.3098,True,orthorhombic,mm2,31,12.9165,4.5179,0.6159
Ga6 Hf6 Nb4,3,0.0,0.0,0.0,0.0,0.0,0.0,0.0,0.0,0.0,0.625,3.875,0.51,0.2217,0.25,0.1088,2.0,0.866,True,hexagonal,6/mmm,193,18.6744,10.3421,1.4523
Bi4 O12 Sr4,3,0.0,0.0,0.2,0.6,0.0,0.0,0.0,0.0,0.0,0.0,-0.2,2.49,1.0158,1.4,0.6013,4.0,1.7436,True,monoclinic,2/m,14,16.0373,7.1361,0.6989
Ba4 Cr4 O40 Si16,4,0.0,0.0,0.0625,0.625,0.0,0.0,0.25,0.0,0.0,0.0625,-1.9375,2.55,0.8761,1.55,0.4228,4.0,1.0533,True,tetragonal,4/mmm,130,14.9892,3.1965,0.465
Hg1 K2 O2,3,0.0,0.4,0.0,0.4,0.0,0.0,0.0,0.0,0.0,0.2,-0.2,2.62,1.1729,1.6,0.7167,4.0,1.4967,True,tetragonal,4/mmm,139,22.6041,4.5662,0.524
Au1 Hf2,2,0.0,0.0,0.0,0.0,0.0,0.0,0.0,0.0,0.0,1.0,3.6667,1.24,0.5845,0.2,0.0943,0.0,0.0,True,tetragonal,4/mmm,139,20.6214,14.8688,0.5147
As4 Co4 S4,3,0.0,0.0,0.0,0.0,0.0,0.0,0.3333,0.0,0.0,0.3333,-1.0,0.7,0.2867,0.35,0.1434,1.0,0.4714,True,cubic,23,198,14.51,6.3293,1.0
Br2 Hf2 N2,3,0.0,0.0,0.0,0.0,0.3333,0.0,0.0,0.0,0.0,0.3333,0.0,1.74,0.8021,0.9,0.3682,4.0,1.633,True,trigonal,-3m,166,19.8693,7.5885,1.0
Cu4 Eu2 O8,3,0.0,0.0,0.0,0.5714,0.0,0.1429,0.0,0.0,0.1429,0.2857,-0.2857,3.44,1.225,1.25,0.4792,6.0,2.0603,True,monoclinic,2/m,15,11.8114,6.8899,0.9189
Ge8 K16 O32 Zn8,4,0.0,0.25,0.0,0.5,0.0,0.0,0.125,0.0,0.0,0.125,-1.0,2.62,1.1198,1.6,0.6576,2.0,1.0,True,orthorhombic,mm2,29,15.9429,3.6486,0.3507
Be12 Pd1,2,0.0,0.0,0.9231,0.0,0.0,0.0,0.0,0.0,0.0,0.0769,2.0,0.63,0.1679,0.35,0.0933,3.0,0.7994,True,tetragonal,4/mmm,139,8.509,3.221,0.7533
Pt16 Y20,2,0.0,0.0,0.0,0.0,0.0,0.0,0.0,0.0,0.0,1.0,2.5556,1.06,0.5267,0.45,0.2236,1.0,0.4969,True,orthorhombic,mmm,62,23.4853,9.6227,0.5111
Fe4 O12 Yb4,3,0.0,0.0,0.0,0.6,0.0,0.2,0.0,0.0,0.2,0.2,-0.2,3.44,1.3657,1.15,0.4903,6.0,2.3324,True,orthorhombic,mmm,62,10.7767,8.5328,0.7022
Mn1 Te1,2,0.0,0.0,0.0,0.5,0.0,0.0,0.5,0.0,0.0,0.5,0.0,0.55,0.275,0.0,0.0,1.0,0.5,True,cubic,m-3m,225,24.012,6.3117,1.0
Cs2 Hg2 Se6 Sm2,4,0.0,0.1667,0.0,0.5,0.0,0.1667,0.0,0.0,0.1667,0.1667,-0.1667,1.76,0.7112,1.45,0.5281,4.0,1.4907,True,orthorhombic,mmm,63,33.8032,5.9009,0.3863
K8 O28 P8 Zn4,4,0.0,0.1667,0.0,0.5833,0.0,0.0,0.0,0.0,0.0,0.0833,-1.3333,2.62,1.0202,1.6,0.5861,2.0,0.8498,True,tetragonal,4/mmm,136,15.2634,2.8789,0.6946
Au1 Lu1 Sn1,3,0.0,0.0,0.0,0.0,0.0,0.3333,0.0,0.0,0.3333,0.3333,0.6667,1.27,0.5191,0.4,0.17,1.0,0.4714,True,cubic,-43m,216,24.576,11.0505,1.0
As2 Ca1 Mn2,3,0.0,0.0,0.2,0.0,0.0,0.0,0.4,0.0,0.0,0.4,0.0,1.18,0.4462,0.65,0.2379,0.0,0.0,True,trigonal,-3m,164,19.3899,5.1349,0.5718
O12 Rh4 U2,3,0.1111,0.0,0.0,0.6667,0.0,0.0,0.0,0.0,0.1111,0.2222,0.0,2.06,0.7305,1.15,0.4304,7.0,2.3147,True,tetragonal,4/mmm,136,12.2041,8.1613,0.511
Er6 Fe2 Si6,3,0.0,0.0,0.0,0.0,0.0,0.4286,0.4286,0.0,0.4286,0.1429,-0.1429,0.66,0.3188,0.65,0.301,5.0,2.3733,True,monoclinic,2/m,12,19.1884,7.9353,0.3261
F14 Sr4 Zn3,3,0.0,0.0,0.1905,0.0,0.6667,0.0,0.0,0.0,0.0,0.1429,0.0,3.03,1.3024,1.5,0.605,3.0,1.2454,True,monoclinic,m,8,14.1415,4.5442,0.9568
Ir1 O4 Sr2,3,0.0,0.0,0.2857,0.5714,0.0,0.0,0.0,0.0,0.0,0.1429,-0.1429,2.49,1.0962,1.4,0.619,4.0,1.6782,True,tetragonal,4/mmm,139,14.2611,7.1768,0.5674
La4 Li2 Mo2 O12,4,0.0,0.1,0.0,0.6,0.0,0.2,0.0,0.0,0.2,0.3,-0.1,2.46,1.0748,1.35,0.5616,6.0,2.4187,True,monoclinic,2/m,14,13.1174,6.0344,0.7005
Ni8 Si14 Ti8,3,0.0,0.0,0.0,0.0,0.0,0.0,0.4667,0.0,0.0,0.5333,-0.2667,0.37,0.1609,0.3,0.1384,1.0,0.4989,True,tetragonal,4/mmm,139,13.0452,5.2855,0.5365
Cr2 Si2 Th1,3,0.2,0.0,0.0,0.0,0.0,0.0,0.4,0.0,0.2,0.4,0.4,0.6,0.22,0.7,0.2577,6.0,2.245,True,tetragonal,4/mmm,139,16.9597,7.6802,0.6676
C4 Ca2,2,0.0,0.0,0.3333,0.0,0.0,0.0,0.0,0.0,0.0,0.0,-2.0,1.55,0.7307,1.1,0.5185,2.0,0.9428,True,monoclinic,2/m,15,16.3576,2.169,0.5249
Co8 Ge12 Te12,3,0.0,0.0,0.0,0.375,0.0,0.0,0.75,0.0,0.0,0.25,-1.75,0.22,0.0852,0.15,0.0658,1.0,0.4841,True,trigonal,-3,148,21.1601,7.0489,1.0
I4 P2,2,0.0,0.0,0.0,0.0,0.6667,0.0,0.0,0.0,0.0,0.0,-1.6667,0.47,0.2216,0.4,0.1886,2.0,0.9428,True,triclinic,-1,2,47.3035,3.3323,0.6878
In3 Rh2 Sr2,3,0.0,0.0,0.2857,0.0,0.0,0.0,0.0,0.0,0.0,0.2857,2.7143,1.33,0.5093,0.65,0.2533,0.0,0.0,True,monoclinic,2/m,12,25.0097,6.8815,0.5504
Ge4 Mn4 Tm4,3,0.0,0.0,0.0,0.0,0.0,0.3333,0.3333,0.0,0.3333,0.3333,0.3333,0.76,0.3126,0.5,0.2095,4.0,1.8856,True,orthorhombic,mmm,62,18.5141,8.8648,0.514
Al6 Ca4 O12 Te1,4,0.0,0.0,0.1739,0.5652,0.0,0.0,0.0435,0.0,0.0,0.0,0.0,2.44,1.0322,1.2,0.4668,3.0,0.8953,True,cubic,-43m,217,17.1229,2.7061,1.0
As4 Cr4 O16,3,0.0,0.0,0.0,0.6667,0.0,0.0,0.1667,0.0,0.0,0.1667,-1.3333,1.78,0.7321,0.8,0.3263,2.0,0.9428,True,orthorhombic,mmm,62,11.9135,4.4351,0.5326
Mg8 O16 Si4,3,0.0,0.0,0.2857,0.5714,0.0,0.0,0.1429,0.0,0.0,0.0,-1.1429,2.13,0.9739,0.9,0.399,1.0,0.4949,True,orthorhombic,mmm,74,9.9429,3.3567,0.7492
Au4 S2,2,0.0,0.0,0.0,0.0,0.0,0.0,0.0,0.0,0.0,0.6667,1.3333,0.04,0.0189,0.35,0.165,3.0,1.4142,True,cubic,m-3m,224,25.4806,9.2539,1.0
Cu2 Te6 Ti2 Tl2,4,0.0,0.0,0.0,0.5,0.0,0.0,0.5,0.0,0.0,0.3333,0.1667,0.56,0.2337,0.55,0.1909,2.0,0.6872,True,monoclinic,2/m,11,28.0172,6.9008,0.3764
Cs2 Pd3 Se4,3,0.0,0.2222,0.0,0.4444,0.0,0.0,0.0,0.0,0.0,0.3333,0.0,1.76,0.6865,1.45,0.5688,2.0,0.7857,True,monoclinic,2/m,12,30.5716,5.4371,0.8133
As8 Ga4 K8 Li4,4,0.0,0.5,0.0,0.0,0.0,0.0,0.3333,0.0,0.0,0.0,-0.0,1.36,0.6067,1.05,0.4535,2.0,0.7454,True,orthorhombic,mmm,64,25.6515,3.2875,0.628
Ho20 In40 Ni18,3,0.0,0.0,0.0,0.0,0.0,0.2564,0.0,0.0,0.2564,0.2308,2.7692,0.68,0.2629,0.4,0.1395,4.0,1.4995,True,tetragonal,4/mmm,129,21.0809,9.0361,0.6858
Ho1 Zn1,2,0.0,0.0,0.0,0.0,0.0,0.5,0.0,0.0,0.5,0.5,2.5,0.42,0.21,0.4,0.2,4.0,2.0,True,cubic,m-3m,221,22.4978,8.5006,1.0
Li2 O4 Ru2,3,0.0,0.25,0.0,0.5,0.0,0.0,0.0,0.0,0.0,0.25,0.0,2.46,1.0206,0.85,0.3911,3.0,1.299,True,orthorhombic,mmm,58,9.0213,6.4429,0.5407
Nd1 Pd3,2,0.0,0.0,0.0,0.0,0.0,0.25,0.0,0.0,0.25,0.75,2.25,1.06,0.459,0.45,0.1949,3.0,1.299,True,cubic,m-3m,221,18.63,10.3283,1.0
O2 Se1 Sm2,3,0.0,0.0,0.0,0.6,0.0,0.4,0.0,0.0,0.4,0.0,0.0,2.27,1.0199,1.25,0.5598,6.0,2.7129,True,trigonal,-3m,164,18.938,7.2194,0.5664
As8 K8 O40 Ti8,4,0.0,0.125,0.0,0.625,0.0,0.0,0.125,0.0,0.0,0.125,-1.0,2.62,0.9928,1.6,0.5494,2.0,0.9682,True,orthorhombic,mm2,33,15.2266,3.2973,0.5004
Li2 P2 Pr1,3,0.0,0.4,0.0,0.0,0.0,0.2,0.0,0.0,0.2,0.0,-0.2,1.21,0.5709,0.85,0.3209,6.0,2.245,True,trigonal,-3m,164,20.8835,3.4468,0.6115
Na20 O18 Zn8,3,0.0,0.4348,0.0,0.3913,0.0,0.0,0.0,0.0,0.0,0.1739,-0.0,2.51,1.1529,1.2,0.5464,2.0,0.7197,True,monoclinic,2,5,13.6413,3.3636,1.0015
Rb24 S28 Sn8,3,0.0,0.4,0.0,0.0,0.0,0.0,0.0,0.0,0.0,0.0,-1.0667,1.76,0.8194,1.35,0.6293,2.0,0.9978,True,orthorhombic,222,19,35.1087,3.0733,0.6689
Ca2 Nd4 Te8,3,0.0,0.0,0.1429,0.5714,0.0,0.2857,0.5714,0.0,0.2857,0.0,0.0,1.1,0.5,0.45,0.215,4.0,1.4846,True,tetragonal,-42m,122,31.3685,6.3445,1.0
Ho2 Ir4,2,0.0,0.0,0.0,0.0,0.0,0.3333,0.0,0.0,0.3333,0.6667,3.0,0.97,0.4573,0.4,0.1886,2.0,0.9428,True,cubic,m-3m,227,18.0638,16.8337,1.0
Se12 Zr24,2,0.0,0.0,0.0,0.3333,0.0,0.0,0.0,0.0,0.0,0.6667,2.0,1.22,0.5751,0.4,0.1886,1.0,0.4714,True,orthorhombic,mmm,58,20.4743,7.0671,0.2289
Ba2 Bi1 O6 Ta1,4,0.0,0.0,0.2,0.6,0.0,0.0,0.0,0.0,0.0,0.1,0.0,2.55,1.0783,1.55,0.6385,4.0,1.9596,True,trigonal,-3,148,16.2408,7.7765,1.0
Ge2 O8 Th2,3,0.1667,0.0,0.0,0.6667,0.0,0.0,0.1667,0.0,0.1667,0.0,-1.3333,2.14,0.8661,1.2,0.4641,7.0,2.5658,True,tetragonal,4/mmm,141,14.6813,6.9499,1.0
La2 Li1 Na1 O12 Ti4,5,0.0,0.1,0.0,0.6,0.0,0.1,0.0,0.0,0.1,0.3,0.0,2.51,1.0692,1.35,0.5103,6.0,1.8296,True,tetragonal,4/mmm,123,11.9897,4.7865,0.4988
Ge4 Ho3 Pd4,3,0.0,0.0,0.0,0.0,0.0,0.2727,0.3636,0.0,0.2727,0.3636,0.0909,0.97,0.398,0.5,0.1998,4.0,1.616,True,orthorhombic,mmm,71,18.8456,9.7007,0.5141
Si4 Ti2,2,0.0,0.0,0.0,0.0,0.0,0.0,0.6667,0.0,0.0,0.3333,-1.3333,0.36,0.1697,0.3,0.1414,1.0,0.4714,True,orthorhombic,mmm,70,14.1601,4.0668,0.9719
C8 Fe2 Tm4,3,0.0,0.0,0.0,0.0,0.0,0.2857,0.0,0.0,0.2857,0.1429,-1.1429,1.3,0.5762,1.05,0.4743,6.0,2.6186,True,orthorhombic,mmm,72,12.4611,8.4097,0.765
Pb2 Th2,2,0.5,0.0,0.0,0.0,0.0,0.0,0.0,0.0,0.5,0.0,3.0,1.03,0.515,0.0,0.0,3.0,1.5,True,tetragonal,4/mmm,123,30.3476,12.017,0.8882
O22 Pb2 V12,3,0.0,0.0,0.0,0.6111,0.0,0.0,0.0,0.0,0.0,0.3333,0.5556,1.81,0.8475,1.2,0.4089,4.0,1.1967,True,hexagonal,6/mmm,194,11.3189,5.6142,0.4398
Ba2 O4 Zr1,3,0.0,0.0,0.2857,0.5714,0.0,0.0,0.0,0.0,0.0,0.1429,0.0,2.55,1.1971,1.55,0.6933,4.0,1.8406,True,tetragonal,4/mmm,139,17.5683,5.8045,0.5708
Ce1 Co5,2,0.0,0.0,0.0,0.0,0.0,0.1667,0.0,0.0,0.1667,0.8333,2.1667,0.76,0.2832,0.5,0.1863,4.0,1.4907,True,hexagonal,6/mmm,191,13.8486,8.6889,1.2123
Ge1 Th1,2,0.5,0.0,0.0,0.0,0.0,0.0,0.5,0.0,0.5,0.0,0.0,0.71,0.355,0.55,0.275,5.0,2.5,True,cubic,m-3m,225,28.192,8.9729,1.0
H2 Mo2,2,0.0,0.0,0.0,0.0,0.0,0.0,0.0,0.0,0.0,0.5,1.5,0.04,0.02,1.2,0.6,4.0,2.0,True,hexagonal,6/mmm,194,9.5466,8.4316,0.5699
Li4 Ni7 O24 P6,4,0.0,0.0976,0.0,0.5854,0.0,0.0,0.0,0.0,0.0,0.1707,-1.1707,2.46,0.8664,0.85,0.3425,2.0,0.769,True,monoclinic,m,8,11.0067,3.7107,1.3287
Mn4 Mo4 O16,3,0.0,0.0,0.0,0.6667,0.0,0.0,0.0,0.0,0.0,0.3333,-0.3333,1.89,0.7676,0.85,0.3892,3.0,1.2134,True,monoclinic,2/m,12,15.0921,3.9404,0.9906
Cu4 S8 Sb4,3,0.0,0.0,0.0,0.0,0.0,0.0,0.25,0.0,0.0,0.25,-1.25,0.68,0.3071,0.45,0.2031,2.0,0.8292,True,orthorhombic,mmm,62,21.1391,4.8985,0.2647
O8 Pd2 Zn4,3,0.0,0.0,0.0,0.5714,0.0,0.0,0.0,0.0,0.0,0.4286,-0.2857,1.79,0.813,0.8,0.3797,3.0,1.1952,True,cubic,m-3m,227,11.7207,6.0968,1.0
Cl6 Tm2,2,0.0,0.0,0.0,0.0,0.75,0.25,0.0,0.0,0.25,0.0,0.0,1.91,0.8271,0.75,0.3248,5.0,2.1651,True,trigonal,-3m,167,28.861,3.9598,1.0
Al6 Br2 Na8 O24 Si6,5,0.0,0.1739,0.0,0.5217,0.0435,0.0,0.1304,0.0,0.0,0.0,-1.0435,2.51,1.0234,1.2,0.4527,2.0,0.5801,True,cubic,-43m,218,16.0106,2.3857,1.0
Ca4 O32 P8 U4,4,0.0833,0.0,0.0833,0.6667,0.0,0.0,0.0,0.0,0.0833,0.0,-1.1667,2.44,0.8774,1.2,0.4336,7.0,1.9347,True,orthorhombic,mmm,62,12.7859,5.0656,0.4404
H16 Na8 O32 P8,4,0.0,0.125,0.0,0.5,0.0,0.0,0.0,0.0,0.0,0.0,-1.5,2.51,0.8711,1.55,0.4669,2.0,0.7071,True,monoclinic,2/m,14,10.967,2.2708,0.5111
Gd1 Hg1,2,0.0,0.0,0.0,0.0,0.0,0.5,0.0,0.0,0.5,0.5,2.0,0.8,0.4,0.3,0.15,2.0,1.0,True,cubic,m-3m,221,26.5877,11.1745,1.0
B4 S12 Sr6,3,0.0,0.0,0.2727,0.0,0.0,0.0,0.1818,0.0,0.0,0.0,0.0,1.63,0.695,1.15,0.4654,3.0,1.0679,True,monoclinic,2/m,15,23.8285,3.0211,0.3934
Ir3 Ta1,2,0.0,0.0,0.0,0.0,0.0,0.0,0.0,0.0,0.0,1.0,3.5,0.7,0.3031,0.1,0.0433,0.0,0.0,True,cubic,m-3m,221,15.1494,20.7603,1.0
Ce4 Ge4 Zn4,3,0.0,0.0,0.0,0.0,0.0,0.3333,0.3333,0.0,0.3333,0.3333,0.3333,0.89,0.3655,0.6,0.2625,4.0,1.8856,True,hexagonal,6/mmm,194,21.9737,7.0069,0.2586
Ce2 Se6 Yb2,3,0.0,0.0,0.0,0.6,0.0,0.4,0.0,0.0,0.4,0.0,0.0,2.55,1.0372,0.7,0.32,4.0,1.9596,True,orthorhombic,mmm,63,27.048,6.7536,0.4177
Cu8 In8 O20,3,0.0,0.0,0.0,0.5556,0.0,0.0,0.0,0.0,0.0,0.2222,-0.0,1.66,0.7961,0.95,0.4276,3.0,1.2862,True,orthorhombic,mm2,33,12.4413,6.4766,0.2687
Co6 Th14,2,0.7,0.0,0.0,0.0,0.0,0.0,0.0,0.0,0.7,0.3,3.4,0.58,0.2658,0.45,0.2062,5.0,2.2913,True,hexagonal,6mm,186,25.4646,11.7447,1.5768
Nb16 O32,2,0.0,0.0,0.0,0.6667,0.0,0.0,0.0,0.0,0.0,0.3333,0.3333,1.84,0.8674,0.85,0.4007,3.0,1.4142,True,tetragonal,4/m,88,12.2451,5.6461,0.592
Al3 Pd3 Y3,3,0.0,0.0,0.0,0.0,0.0,0.0,0.0,0.0,0.0,0.6667,2.6667,0.98,0.4029,0.55,0.2321,2.0,0.9428,True,hexagonal,-6m2,189,20.1682,6.1012,1.7552
Cu2 S1,2,0.0,0.0,0.0,0.0,0.0,0.0,0.0,0.0,0.0,0.6667,0.6667,0.68,0.3206,0.35,0.165,1.0,0.4714,True,cubic,m-3m,225,14.2689,6.1739,1.0
Ca1 Cu1 K2 N6 O12,5,0.0,0.0909,0.0455,0.5455,0.0,0.0,0.0,0.0,0.0,0.0455,-1.6364,2.62,0.8759,1.6,0.5129,2.0,0.7714,True,orthorhombic,mmm,69,13.5462,2.5512,0.9743
Na4 O12 Ta4,3,0.0,0.2,0.0,0.6,0.0,0.0,0.0,0.0,0.0,0.2,0.0,2.51,1.1048,1.2,0.5142,4.0,1.5492,True,orthorhombic,mmm,63,12.2019,6.8571,0.7032
F1 Tl1,2,0.0,0.0,0.0,0.0,0.5,0.0,0.0,0.0,0.0,0.0,0.0,2.36,1.18,1.4,0.7,4.0,2.0,True,cubic,m-3m,225,22.924,8.0905,1.0
F8 Mg2 Sr2,3,0.0,0.0,0.3333,0.0,0.6667,0.0,0.0,0.0,0.0,0.0,0.0,3.03,1.3475,1.5,0.6067,3.0,1.1055,True,orthorhombic,mmm,63,14.298,3.6374,0.5237
F6 H12 Ni1 O6 Si1,5,0.0,0.0,0.0,0.2308,0.2308,0.0,0.0385,0.0,0.0,0.0385,-1.2308,2.08,0.7988,1.1,0.2673,3.0,0.7308,True,trigonal,-3,148,9.8243,2.0079,1.0
Ge8 La8 O28,3,0.0,0.0,0.0,0.6364,0.0,0.1818,0.1818,0.0,0.1818,0.1818,-1.4545,2.34,0.9474,1.35,0.5253,6.0,2.2709,True,triclinic,-1,2,14.7858,5.4631,0.5486
Mo20 Nd4 O32,3,0.0,0.0,0.0,0.5714,0.0,0.0714,0.0,0.0,0.0714,0.3571,0.5,2.3,0.7595,1.25,0.464,6.0,1.8803,True,monoclinic,2/m,14,13.3081,6.7017,0.7943
O52 P8 Te16,3,0.0,0.0,0.0,0.8947,0.0,0.0,0.2105,0.0,0.0,0.0,-2.1053,1.34,0.6094,0.8,0.3275,3.0,1.2071,True,monoclinic,2/m,14,14.6217,4.6642,0.2318
Bi2 Li2 O24 P8,4,0.0,0.0556,0.0,0.6667,0.0,0.0,0.0,0.0,0.0,0.0,-1.7778,2.46,0.743,1.0,0.3074,4.0,0.9558,True,monoclinic,2/m,12,15.2624,3.2145,0.4947
Ag1 Be12,2,0.0,0.0,0.9231,0.0,0.0,0.0,0.0,0.0,0.0,0.0769,1.9231,0.36,0.0959,0.55,0.1466,3.0,0.7994,True,tetragonal,4/mmm,139,8.8886,3.1042,0.7578
Be4 O7 Te1,3,0.0,0.0,0.3333,0.6667,0.0,0.0,0.0833,0.0,0.0,0.0,-0.6667,1.87,0.8804,0.8,0.2718,3.0,0.8292,True,cubic,-43m,216,9.3388,4.0844,1.0
Al12 Ho4 O32 Pb8,4,0.0,0.0,0.0,0.5714,0.0,0.0714,0.0,0.0,0.0714,0.0,0.0,2.21,0.8605,1.2,0.4862,6.0,1.8966,True,cubic,m-3m,224,15.4462,6.053,1.0
Pt12 Si4,2,0.0,0.0,0.0,0.0,0.0,0.0,0.25,0.0,0.0,0.75,0.5,0.38,0.1645,0.25,0.1083,3.0,1.299,True,orthorhombic,mmm,62,15.1769,16.7767,0.7242
Ba4 Ge8 P8,3,0.0,0.0,0.2,0.0,0.0,0.0,0.4,0.0,0.0,0.0,-2.4,1.3,0.4906,1.15,0.425,3.0,1.0954,True,tetragonal,4mm,105,25.6919,4.4539,0.8963
Na2 O12 Ru2 Sr6,4,0.0,0.0909,0.2727,0.5455,0.0,0.0,0.0,0.0,0.0,0.0909,-0.1818,2.51,1.1675,1.4,0.6344,3.0,1.4025,True,trigonal,-3m,167,14.4854,5.0327,1.0
La1 Sn3,2,0.0,0.0,0.0,0.0,0.0,0.25,0.0,0.0,0.25,0.25,-2.25,0.86,0.3724,0.5,0.2165,3.0,1.299,True,cubic,m-3m,221,27.8672,7.3745,1.0
P8 Pd8 S8,3,0.0,0.0,0.0,0.0,0.0,0.0,0.0,0.0,0.0,0.3333,-1.0,0.39,0.1815,0.4,0.1886,2.0,0.9428,True,orthorhombic,mmm,60,20.3112,4.618,0.3837
Cu2 Fe1 S4 Sn1,4,0.0,0.0,0.0,0.0,0.0,0.0,0.0,0.0,0.0,0.375,-0.75,0.75,0.3428,0.45,0.196,2.0,0.696,True,tetragonal,-42m,121,20.0289,4.4553,0.8275
Au20 F84 Nd8,3,0.0,0.0,0.0,0.0,0.75,0.0714,0.0,0.0,0.0714,0.1786,0.0,2.84,0.8572,1.35,0.4445,6.0,2.0304,True,tetragonal,422,92,16.8028,5.9023,0.3205
Gd2 Pd2 Sb2,3,0.0,0.0,0.0,0.0,0.0,0.3333,0.3333,0.0,0.3333,0.3333,0.6667,1.0,0.4403,0.4,0.178,3.0,1.4142,True,hexagonal,6mm,186,23.266,9.1696,0.6145
As8 Ge38 I8,3,0.0,0.0,0.0,0.0,0.1481,0.0,0.8519,0.0,0.0,0.0,-3.4074,0.65,0.2283,0.25,0.069,1.0,0.3552,True,cubic,-43m,218,23.5645,5.7091,1.0
Sn2 Zr6,2,0.0,0.0,0.0,0.0,0.0,0.0,0.0,0.0,0.0,0.75,2.0,0.63,0.2728,0.1,0.0433,0.0,0.0,True,cubic,m-3m,223,22.5606,7.2202,1.0
Fe4 O16 P4,3,0.0,0.0,0.0,0.6667,0.0,0.0,0.0,0.0,0.0,0.1667,-1.5,1.61,0.6821,0.8,0.3055,2.0,0.7638,True,orthorhombic,mmm,62,12.1104,3.4466,2.0449
Mn2 Nd2 Si2,3,0.0,0.0,0.0,0.0,0.0,0.3333,0.3333,0.0,0.3333,0.3333,0.3333,0.76,0.3106,0.75,0.3082,5.0,2.1602,True,orthorhombic,mmm,59,19.8416,6.3399,0.5291
Ca2 H10 O12 P2,4,0.0,0.0,0.0769,0.4615,0.0,0.0,0.0,0.0,0.0,0.0,-1.3846,2.44,0.7686,1.55,0.4124,3.0,0.8635,True,monoclinic,m,9,9.6343,2.2816,0.7173
In6 Sb6,2,0.0,0.0,0.0,0.0,0.0,0.0,0.5,0.0,0.0,0.0,0.0,0.27,0.135,0.1,0.05,0.0,0.0,True,orthorhombic,mmm,63,29.0073,6.7715,0.2441
Hg7 K2,2,0.0,0.2222,0.0,0.0,0.0,0.0,0.0,0.0,0.0,0.7778,1.0,1.18,0.4906,0.7,0.291,2.0,0.8315,True,trigonal,-3m,164,32.1959,8.4947,1.0894
Al1 Mn1,2,0.0,0.0,0.0,0.0,0.0,0.0,0.0,0.0,0.0,0.5,2.5,0.06,0.03,0.15,0.075,1.0,0.5,True,cubic,m-3m,221,12.8088,5.3101,1.0
K2 N6 Ni1 O12 Sr1,5,0.0,0.0909,0.0455,0.5455,0.0,0.0,0.0,0.0,0.0,0.0455,-1.6364,2.62,0.8803,1.6,0.5311,3.0,0.8872,True,cubic,m-3,202,13.9561,2.7071,1.0
Mg8 Si80 Sr52,3,0.0,0.0,0.4286,0.0,0.0,0.0,0.5714,0.0,0.0,0.0,-1.4286,0.95,0.4535,0.9,0.4271,2.0,0.9664,True,orthorhombic,mmm,55,25.0765,3.3098,0.4213
Co4 O32 P10,3,0.0,0.0,0.0,0.6957,0.0,0.0,0.0,0.0,0.0,0.087,-1.8696,1.56,0.6207,0.75,0.246,2.0,0.6419,True,monoclinic,2/m,13,14.299,2.6696,3.7198
F8 Zn4,2,0.0,0.0,0.0,0.0,0.6667,0.0,0.0,0.0,0.0,0.3333,0.0,2.33,1.0984,0.85,0.4007,2.0,0.9428,True,orthorhombic,mmm,60,12.0441,4.7522,0.8234
Ge2 Hf2 O8,3,0.0,0.0,0.0,0.6667,0.0,0.0,0.1667,0.0,0.0,0.1667,-1.3333,2.14,0.8661,0.95,0.3869,4.0,1.5275,True,tetragonal,4/m,88,10.5512,8.2657,0.7728
Cl2 H2 Lu2,3,0.0,0.0,0.0,0.0,0.3333,0.3333,0.0,0.0,0.3333,0.0,0.3333,1.89,0.7716,1.5,0.6124,5.0,2.0548,True,trigonal,-3m,166,17.7982,6.5753,1.0
Cl2 In10 S10,3,0.0,0.0,0.0,0.0,0.0909,0.0,0.0,0.0,0.0,0.0,0.3636,1.38,0.4742,0.55,0.2739,2.0,0.9959,True,monoclinic,2/m,11,25.0854,4.6329,0.2598
B2 Ce1 Ru3,3,0.0,0.0,0.0,0.0,0.0,0.1667,0.3333,0.0,0.1667,0.5,3.0,1.08,0.3853,1.0,0.3384,6.0,2.0616,True,hexagonal,6/mmm,191,13.3857,9.613,1.8423
Pd3 Sc1,2,0.0,0.0,0.0,0.0,0.0,0.0,0.0,0.0,0.0,1.0,2.25,0.84,0.3637,0.2,0.0866,1.0,0.433,True,cubic,m-3m,221,16.1988,9.3339,1.0
Np1 Rh2 Si2,3,0.2,0.0,0.0,0.0,0.0,0.0,0.4,0.0,0.2,0.4,0.6,0.92,0.3379,0.65,0.2379,6.0,2.1909,True,tetragonal,4/mmm,139,16.0489,10.3257,0.6902
Fe8 Mo4 P48,3,0.0,0.0,0.0,0.0,0.0,0.0,0.0,0.0,0.0,0.2,-1.8667,0.36,0.1218,0.45,0.167,2.0,0.5735,True,orthorhombic,mmm,60,14.5312,4.4134,0.413
C2 N2 Ta4,3,0.0,0.0,0.0,0.0,0.0,0.0,0.0,0.0,0.0,0.5,0.75,1.54,0.6703,0.8,0.3879,4.0,2.0,True,monoclinic,2/m,15,11.0593,14.5611,1.1506
Fe4 Li4 O16 P4,4,0.0,0.1429,0.0,0.5714,0.0,0.0,0.0,0.0,0.0,0.1429,-1.1429,2.46,0.9383,0.85,0.363,2.0,0.7284,True,monoclinic,m,7,12.9,2.901,1.073
Li6 N24 Ta18,3,0.0,0.125,0.0,0.0,0.0,0.0,0.0,0.0,0.0,0.375,0.5,2.06,0.85,0.8,0.4,4.0,1.9365,True,orthorhombic,mm2,34,10.1609,12.3755,0.5084
Pt9 Sc5 Si7,3,0.0,0.0,0.0,0.0,0.0,0.0,0.3333,0.0,0.0,0.6667,0.2381,0.92,0.3607,0.5,0.1875,3.0,1.3316,True,hexagonal,-6,174,16.2429,10.5987,2.5615
Ba4 I8,2,0.0,0.0,0.3333,0.0,0.6667,0.0,0.0,0.0,0.0,0.0,0.0,1.77,0.8344,0.75,0.3536,1.0,0.4714,True,orthorhombic,mmm,62,44.189,4.8994,0.4998
Be12 Ca4 Mn8 O48 Si12,5,0.0,0.0,0.1905,0.5714,0.0,0.0,0.1429,0.0,0.0,0.0952,-1.1429,2.44,0.9211,1.2,0.349,2.0,0.7284,True,monoclinic,2/m,14,10.6235,3.3736,0.5419
Al2 La2 Si4,3,0.0,0.0,0.0,0.0,0.0,0.25,0.5,0.0,0.25,0.25,-0.5,0.8,0.3268,0.85,0.3518,5.0,2.1651,True,trigonal,-3m,164,21.7095,4.2462,0.365
Co2 O8 P2,3,0.0,0.0,0.0,0.6667,0.0,0.0,0.0,0.0,0.0,0.1667,-1.5,1.56,0.6683,0.75,0.2893,2.0,0.7638,True,orthorhombic,mmm,63,11.0448,3.8565,0.7332
Lu1 Mg1,2,0.0,0.0,0.5,0.0,0.0,0.5,0.0,0.0,0.5,0.0,2.5,0.04,0.02,0.25,0.125,3.0,1.5,True,cubic,m-3m,221,25.9047,6.3869,1.0
F8 H16 O4,3,0.0,0.0,0.0,0.1429,0.2857,0.0,0.0,0.0,0.0,0.0,-1.1429,1.78,0.8091,0.35,0.1436,1.0,0.4949,True,monoclinic,2/m,14,8.7911,1.5658,0.3177
Co2 K4 Se4,3,0.0,0.4,0.0,0.4,0.0,0.0,0.0,0.0,0.0,0.2,0.0,1.73,0.7776,1.05,0.4872,0.0,0.0,True,orthorhombic,mmm,72,29.1237,3.3646,0.7665
Al6 Hf4,2,0.0,0.0,0.0,0.0,0.0,0.0,0.0,0.0,0.0,0.4,3.4,0.31,0.1519,0.3,0.147,3.0,1.4697,True,orthorhombic,mm2,43,18.2434,7.9721,0.7412
K6 Se6,2,0.0,0.5,0.0,0.5,0.0,0.0,0.0,0.0,0.0,0.0,-0.5,1.73,0.865,1.05,0.525,0.0,0.0,True,hexagonal,-6m2,189,35.9264,2.7284,1.4815
Yb1 Zn1,2,0.0,0.0,0.0,0.0,0.0,0.5,0.0,0.0,0.5,0.5,2.5,1.65,0.825,0.4,0.2,4.0,2.0,True,cubic,m-3m,225,28.1726,7.0273,1.0
Ge12 Lu6 Mn6,3,0.0,0.0,0.0,0.0,0.0,0.25,0.5,0.0,0.25,0.25,-0.75,0.74,0.3159,0.5,0.2043,2.0,0.866,True,orthorhombic,mmm,65,16.9229,9.2036,0.5638
Bi2 Cl24 Cs8 Sb2,4,0.0,0.2222,0.0,0.0,0.6667,0.0,0.0556,0.0,0.0,0.0,-0.4444,2.37,0.9819,1.6,0.6549,3.0,1.3529,True,tetragonal,4/mmm,141,35.5736,3.3396,0.8142
As6 Cr8,2,0.0,0.0,0.0,0.0,0.0,0.0,0.4286,0.0,0.0,0.5714,0.4286,0.52,0.2573,0.25,0.1237,0.0,0.0,True,monoclinic,m,8,15.0301,6.8301,0.3824
S4 Si2,2,0.0,0.0,0.0,0.0,0.0,0.0,0.3333,0.0,0.0,0.0,-2.6667,0.68,0.3206,0.1,0.0471,0.0,0.0,True,orthorhombic,mmm,72,31.6035,1.6151,0.8121
Nd1 O3 V1,3,0.0,0.0,0.0,0.6,0.0,0.2,0.0,0.0,0.2,0.2,0.4,2.3,1.0186,1.25,0.5148,6.0,2.3324,True,cubic,m-3m,221,12.0784,6.6865,1.0