formula,numberOfSpecies,fracActinoid,fracAlkali,fracAlkaline,fracChalcogen,fracHalogen,fracLanthanoid,fracMetalloid,fracNobleGas,fracRareEarth,fracTransitionMetal,electronsPerAtom,electronegativityRange,electronegativityStd,radiiRange,radiiStd,rowRange,rowStd,ordered,crystalSystem,pointGroup,spaceGroupNumber,volumePerSite,density,c_a
Si6 Ta3,2,0.0,0.0,0.0,0.0,0.0,0.0,0.6667,0.0,0.0,0.3333,-1.0,0.4,0.1886,0.35,0.165,3.0,1.4142,True,hexagonal,622,180,14.6774,8.9422,0.7278
Cl4 H20 N8 O16,4,0.0,0.0,0.0,0.3333,0.0833,0.0,0.0,0.0,0.0,0.0,-1.6667,1.24,0.553,0.75,0.2323,2.0,0.6236,True,monoclinic,2/m,15,9.857,1.8602,0.4395
Na2 Nd2 O16 S4,4,0.0,0.0833,0.0,0.6667,0.0,0.0833,0.0,0.0,0.0833,0.0,-1.3333,2.51,0.8905,1.25,0.4511,6.0,1.6394,True,triclinic,-1,2,13.222,3.7609,0.8837
Er1 P2 Ru2,3,0.0,0.0,0.0,0.0,0.0,0.2,0.0,0.0,0.2,0.4,0.6,0.96,0.382,0.75,0.275,5.0,1.833,True,tetragonal,4/mmm,139,15.606,9.1794,0.7305
Cd1 O3 Ti1,3,0.0,0.0,0.0,0.6,0.0,0.0,0.0,0.0,0.0,0.4,0.0,1.9,0.8953,0.95,0.4313,3.0,1.2649,True,cubic,m-3m,221,13.7366,5.0354,1.0
Ho4 Ni4 O12,3,0.0,0.0,0.0,0.6,0.0,0.2,0.0,0.0,0.2,0.2,-0.2,2.21,0.941,1.15,0.4823,6.0,2.3324,True,monoclinic,2/m,14,10.8644,8.3031,0.6999
Ca3 N2,2,0.0,0.0,0.6,0.0,0.0,0.0,0.0,0.0,0.0,0.0,-0.0,2.04,0.9994,1.15,0.5634,2.0,0.9798,True,trigonal,-3m,164,17.8393,2.7599,0.556
Ba1 La1 Mg1 Nb1 O6,5,0.0,0.0,0.2,0.6,0.0,0.1,0.0,0.0,0.1,0.2,0.0,2.55,1.0978,1.55,0.5996,6.0,2.0591,True,tetragonal,-4,82,13.4784,6.0299,1.0
Ge16 Li4 Na4 O36,4,0.0,0.1333,0.0,0.6,0.0,0.0,0.2667,0.0,0.0,0.0,-2.1333,2.51,0.9278,1.2,0.4009,2.0,0.8794,True,orthorhombic,mm2,29,12.1234,4.2414,0.2929
H6 Li2 Ni4 O28 P8,5,0.0,0.0417,0.0,0.5833,0.0,0.0,0.0,0.0,0.0,0.0833,-1.5833,2.46,0.7401,1.2,0.323,3.0,0.7626,True,monoclinic,m,9,11.1429,2.9509,0.9473
F6 Li2 Zr1,3,0.0,0.2222,0.0,0.0,0.6667,0.0,0.0,0.0,0.0,0.1111,0.0,3.0,1.3626,1.05,0.4643,3.0,0.9428,True,trigonal,-3m,162,11.6853,3.4594,1.0731
Ho4 Rh4 Si4,3,0.0,0.0,0.0,0.0,0.0,0.3333,0.3333,0.0,0.3333,0.3333,0.6667,1.05,0.4341,0.65,0.2677,5.0,2.0548,True,orthorhombic,mmm,62,18.0044,9.0976,0.5731
F32 K8 Re4,3,0.0,0.1818,0.0,0.0,0.7273,0.0,0.0,0.0,0.0,0.0909,-0.1818,3.16,1.275,1.7,0.6647,4.0,1.2856,True,orthorhombic,mmm,62,15.437,4.0719,0.4705
F6 Hg1 Rh1,3,0.0,0.0,0.0,0.0,0.75,0.0,0.0,0.0,0.0,0.25,-0.25,1.98,0.7998,1.0,0.4023,4.0,1.536,True,trigonal,-3,148,15.0041,5.7755,1.0
Hg4 K2,2,0.0,0.3333,0.0,0.0,0.0,0.0,0.0,0.0,0.0,0.6667,1.0,1.18,0.5563,0.7,0.33,2.0,0.9428,True,orthorhombic,mmm,74,34.3359,7.0975,0.779
Ir1 Na4 O4,3,0.0,0.4444,0.0,0.4444,0.0,0.0,0.0,0.0,0.0,0.1111,-0.1111,2.51,1.1832,1.2,0.5676,4.0,1.1967,True,tetragonal,4/m,87,13.9243,4.6135,0.843
Co2 Cs2 Ho2 Se6,4,0.0,0.1667,0.0,0.5,0.0,0.1667,0.0,0.0,0.1667,0.1667,-0.0,1.76,0.7006,1.45,0.5258,4.0,1.5275,True,orthorhombic,mmm,63,30.2292,5.435,0.3782
Ca3 Ga4 Ni4,3,0.0,0.0,0.2727,0.0,0.0,0.0,0.0,0.0,0.0,0.3636,2.3636,0.91,0.3854,0.5,0.2126,0.0,0.0,True,cubic,-43m,217,18.3964,5.2017,1.0
Ga9 Ge18 Ni39,3,0.0,0.0,0.0,0.0,0.0,0.0,0.2727,0.0,0.0,0.5909,0.5,0.2,0.0625,0.1,0.0437,0.0,0.0,True,trigonal,32,152,12.3581,8.5997,0.5224
Ge32 Rb32,2,0.0,0.5,0.0,0.0,0.0,0.0,0.5,0.0,0.0,0.0,-1.5,1.19,0.595,1.1,0.55,1.0,0.5,True,cubic,-43m,218,37.7141,3.4807,1.0
Cs2 Cu1 F6,3,0.0,0.2222,0.0,0.0,0.6667,0.0,0.0,0.0,0.0,0.1111,-0.2222,3.19,1.3633,2.1,0.8634,4.0,1.663,True,tetragonal,4/mmm,139,20.9086,3.9123,1.0
Cu2 La1 Si2,3,0.0,0.0,0.0,0.0,0.0,0.2,0.4,0.0,0.2,0.6,-0.2,0.8,0.32,0.85,0.3108,5.0,1.8547,True,tetragonal,4/mmm,139,17.1456,6.2404,0.7159
Na2 O12 Sr6 Ta2,4,0.0,0.0909,0.2727,0.5455,0.0,0.0,0.0,0.0,0.0,0.0909,0.0,2.51,1.1965,1.4,0.639,4.0,1.5428,True,trigonal,-3m,167,15.0145,5.6584,1.0
Br4 K4 O16,3,0.0,0.1667,0.0,0.6667,0.1667,0.0,0.0,0.0,0.0,0.0,-1.3333,2.62,0.9568,1.6,0.5905,2.0,0.9428,True,orthorhombic,mmm,62,17.8913,2.8308,0.662
Cd1 In2 Se4,3,0.0,0.0,0.0,0.5714,0.0,0.0,0.0,0.0,0.0,0.1429,0.0,0.86,0.3969,0.4,0.1979,1.0,0.4949,True,triclinic,1,1,26.2742,5.9398,1.1803
H12 K4 Si4,3,0.0,0.2,0.0,0.0,0.0,0.0,0.2,0.0,0.0,0.0,-1.2,1.38,0.5348,1.95,0.769,3.0,1.2649,True,orthorhombic,mmm,62,16.6268,1.4023,0.6098
As8 S10,2,0.0,0.0,0.0,0.0,0.0,0.0,0.4444,0.0,0.0,0.0,-2.4444,0.4,0.1988,0.15,0.0745,1.0,0.4969,True,monoclinic,2/m,11,30.7312,2.7618,0.9548
F56 Nb8 Se4,3,0.0,0.0,0.0,0.0588,0.8235,0.0,0.0,0.0,0.0,0.1176,-0.3529,2.38,0.8088,0.95,0.3294,3.0,1.0357,True,monoclinic,2/m,14,17.7928,2.9137,0.4446
Al4 Cl16 Cu2,3,0.0,0.0,0.0,0.0,0.7273,0.0,0.0,0.0,0.0,0.0909,-0.0,1.55,0.6512,0.35,0.1286,1.0,0.2875,True,monoclinic,2/m,14,30.4049,1.9916,0.5489
Al6 O16 Sr4 W1,4,0.0,0.0,0.1481,0.5926,0.0,0.0,0.0,0.0,0.0,0.037,-0.0741,2.49,1.0202,1.4,0.5109,4.0,1.2183,True,cubic,-43m,217,16.5782,3.5324,1.0
Cd2 Te2,2,0.0,0.0,0.0,0.5,0.0,0.0,0.5,0.0,0.0,0.5,0.0,0.41,0.205,0.15,0.075,0.0,0.0,True,hexagonal,6mm,186,36.4557,5.4662,0.6104
K1 La1 Te2,3,0.0,0.25,0.0,0.5,0.0,0.25,0.5,0.0,0.25,0.25,0.0,1.28,0.5785,0.8,0.3489,4.0,1.5,True,trigonal,-3m,166,39.7039,4.5295,1.0
O4 Rb2 U1,3,0.1429,0.2857,0.0,0.5714,0.0,0.0,0.0,0.0,0.1429,0.0,0.0,2.62,1.2165,1.75,0.7891,7.0,2.4744,True,tetragonal,4/mmm,139,19.5193,5.748,0.5666
H32 O36 P8,3,0.0,0.0,0.0,0.4737,0.0,0.0,0.0,0.0,0.0,0.0,-1.6842,1.25,0.6201,0.75,0.2395,2.0,0.6531,True,monoclinic,2/m,14,9.738,1.9207,0.5772
As14 Ca8 Ir16,3,0.0,0.0,0.2105,0.0,0.0,0.0,0.3684,0.0,0.0,0.4211,0.5789,1.2,0.4855,0.65,0.2386,2.0,0.9875,True,monoclinic,2/m,11,19.1593,10.1381,0.3025
Co6 Li6 O24 P6,4,0.0,0.1429,0.0,0.5714,0.0,0.0,0.0,0.0,0.0,0.1429,-1.1429,2.46,0.932,0.85,0.3533,2.0,0.7284,True,trigonal,3,146,12.269,3.1099,1.0
Er4 Ge8 Pt4,3,0.0,0.0,0.0,0.0,0.0,0.25,0.5,0.0,0.25,0.25,-0.75,1.04,0.3884,0.5,0.2062,4.0,1.6583,True,orthorhombic,mmm,71,19.4671,10.825,0.451
Br6 Ru2,2,0.0,0.0,0.0,0.0,0.75,0.0,0.0,0.0,0.0,0.25,0.0,0.76,0.3291,0.15,0.065,1.0,0.433,True,hexagonal,6/mmm,193,32.054,4.4135,1.1889
Hg1 Na3,2,0.0,0.75,0.0,0.0,0.0,0.0,0.0,0.0,0.0,0.25,1.0,1.07,0.4633,0.3,0.1299,3.0,1.299,True,trigonal,-3m,166,29.1101,3.8441,1.0
Ni5 Tm1,2,0.0,0.0,0.0,0.0,0.0,0.1667,0.0,0.0,0.1667,0.8333,2.1667,0.66,0.246,0.4,0.1491,4.0,1.4907,True,hexagonal,6/mmm,191,13.2977,9.6237,1.2218
Li2 Mo4 O22 P6,4,0.0,0.0588,0.0,0.6471,0.0,0.0,0.0,0.0,0.0,0.1176,-1.2941,2.46,0.7472,0.85,0.3272,3.0,0.9772,True,monoclinic,2,5,12.914,3.5378,0.8248
Co2 Se2 Tl1,3,0.0,0.0,0.0,0.4,0.0,0.0,0.0,0.0,0.0,0.4,0.2,0.93,0.3827,0.75,0.275,2.0,0.8,True,tetragonal,4/mmm,139,20.3434,7.8388,0.5266
As2 Eu2 Pt2,3,0.0,0.0,0.0,0.0,0.0,0.3333,0.3333,0.0,0.3333,0.3333,0.3333,2.28,1.052,0.7,0.2944,4.0,1.633,True,tetragonal,4mm,109,22.7521,10.2657,0.5218
Rb1 S2 Sm1,3,0.0,0.25,0.0,0.0,0.0,0.25,0.0,0.0,0.25,0.0,0.0,1.76,0.8021,1.35,0.5777,5.0,2.0463,True,trigonal,-3m,166,29.0551,4.2858,1.0
Ca2 H8 O8 P4,4,0.0,0.0,0.0909,0.3636,0.0,0.0,0.0,0.0,0.0,0.0,-1.4545,2.44,0.7579,1.55,0.449,3.0,0.9535,True,monoclinic,2/m,15,13.1244,1.956,0.7037
B4 Dy6 Ni14,3,0.0,0.0,0.0,0.0,0.0,0.25,0.1667,0.0,0.25,0.5833,2.4167,0.82,0.3148,0.9,0.2853,6.0,2.0548,True,hexagonal,6/mmm,194,13.2585,9.6018,0.3549
Cu4 S12 Ta4,3,0.0,0.0,0.0,0.0,0.0,0.0,0.0,0.0,0.0,0.4,0.2,1.08,0.4493,0.45,0.1985,3.0,1.1662,True,orthorhombic,mmm,62,20.1648,5.611,0.2937
Co2 Na8 O8,3,0.0,0.4444,0.0,0.4444,0.0,0.0,0.0,0.0,0.0,0.1111,-0.2222,2.51,1.1871,1.2,0.5676,2.0,0.6667,True,triclinic,1,1,14.0499,2.8219,0.6582
Ba2 Cr2 O14 P4,4,0.0,0.0,0.0909,0.6364,0.0,0.0,0.0,0.0,0.0,0.0909,-1.3636,2.55,0.8819,1.55,0.4729,4.0,1.2129,True,triclinic,-1,2,13.9413,3.9335,0.7072
Nb2 O8 Tb2,3,0.0,0.0,0.0,0.6667,0.0,0.1667,0.0,0.0,0.1667,0.1667,0.0,3.44,1.3275,1.15,0.4793,6.0,2.2913,True,monoclinic,2/m,15,12.854,6.8001,0.7778
Li2 Nb4 O24 P6,4,0.0,0.0556,0.0,0.6667,0.0,0.0,0.0,0.0,0.0,0.1111,-1.2222,2.46,0.8191,0.85,0.322,3.0,0.9574,True,monoclinic,m,9,13.85,3.1817,1.0
As2 O8 Sm2,3,0.0,0.0,0.0,0.6667,0.0,0.1667,0.1667,0.0,0.1667,0.0,-1.3333,2.27,0.8816,1.25,0.4699,6.0,2.2111,True,tetragonal,4/m,88,12.704,6.3019,0.7502
Cr2 H2 O4,3,0.0,0.0,0.0,0.5,0.0,0.0,0.0,0.0,0.0,0.25,-0.5,1.78,0.7788,1.15,0.4219,3.0,1.0897,True,orthorhombic,mm2,31,8.2189,4.2935,0.6145
Nb1,1,0.0,0.0,0.0,0.0,0.0,0.0,0.0,0.0,0.0,1.0,5.0,0.0,0.0,0.0,0.0,0.0,0.0,True,cubic,m-3m,225,18.9355,8.1474,1.0
Li8 O16 V6,3,0.0,0.2667,0.0,0.5333,0.0,0.0,0.0,0.0,0.0,0.2,0.2,2.46,1.1103,0.85,0.4041,2.0,0.8,True,monoclinic,2/m,11,9.6895,3.5256,0.3412
Tb2 Zn4,2,0.0,0.0,0.0,0.0,0.0,0.3333,0.0,0.0,0.3333,0.6667,2.3333,1.65,0.7778,0.4,0.1886,4.0,1.8856,True,orthorhombic,mmm,74,20.3648,7.8752,0.7906
Al2 Ce2 Si4,3,0.0,0.0,0.0,0.0,0.0,0.25,0.5,0.0,0.25,0.0,-0.5,0.78,0.3187,0.75,0.3092,5.0,2.1651,True,trigonal,-3m,164,20.2946,4.5671,0.3797
Ba1 Mn2 O5 Y1,4,0.0,0.0,0.1111,0.5556,0.0,0.0,0.0,0.0,0.0,0.3333,-0.1111,2.55,1.0777,1.55,0.5793,4.0,1.4741,True,tetragonal,4/mmm,123,13.8097,5.5594,0.5065
O8 Re3,2,0.0,0.0,0.0,0.7273,0.0,0.0,0.0,0.0,0.0,0.2727,-0.3636,1.54,0.6859,0.75,0.334,4.0,1.7814,True,triclinic,-1,2,11.7709,8.8056,0.8482
Al4 Fe2 O8,3,0.0,0.0,0.0,0.5714,0.0,0.0,0.0,0.0,0.0,0.1429,0.0,1.83,0.872,0.8,0.3495,2.0,0.7284,True,cubic,m-3m,227,10.002,4.1222,1.0
C1 Er3 Tl1,3,0.0,0.0,0.0,0.0,0.0,0.6,0.0,0.0,0.6,0.0,1.2,1.31,0.5078,1.2,0.4389,6.0,2.3324,True,cubic,m-3m,221,34.4984,6.9137,1.0
Ce2 Ir4 Sn4,3,0.0,0.0,0.0,0.0,0.0,0.2,0.0,0.0,0.2,0.4,0.2,1.08,0.3987,0.5,0.1855,3.0,1.0954,True,tetragonal,4/mmm,129,21.7655,11.6265,0.4033
Co4 Na3 O8,3,0.0,0.2,0.0,0.5333,0.0,0.0,0.0,0.0,0.0,0.2667,-0.3333,2.51,1.0326,1.2,0.4944,2.0,0.8537,True,triclinic,-1,2,11.3066,4.2365,1.3333
Np2 O2 S2,3,0.3333,0.0,0.0,0.3333,0.0,0.0,0.0,0.0,0.3333,0.0,0.3333,2.08,0.8534,1.15,0.4767,7.0,3.0912,True,tetragonal,4/mmm,129,16.0788,9.8134,0.5667
C2 Li2,2,0.0,0.5,0.0,0.0,0.0,0.0,0.0,0.0,0.0,0.0,-1.5,1.57,0.785,0.75,0.375,0.0,0.0,True,orthorhombic,mmm,71,11.8583,1.3269,0.895
Ba4 Be4 Nd8 O20,4,0.0,0.0,0.2222,0.5556,0.0,0.2222,0.0,0.0,0.2222,0.0,-0.0,2.55,1.1323,1.55,0.6218,6.0,2.5724,True,monoclinic,2/m,14,13.8288,6.8687,0.6872
Nb1 Rh3,2,0.0,0.0,0.0,0.0,0.0,0.0,0.0,0.0,0.0,1.0,3.5,0.68,0.2944,0.1,0.0433,0.0,0.0,True,cubic,m-3m,221,14.9519,11.1509,1.0
Se1 Th1,2,0.5,0.0,0.0,0.5,0.0,0.0,0.0,0.0,0.5,0.0,1.0,1.25,0.625,0.65,0.325,5.0,2.5,True,cubic,m-3m,225,26.2929,9.8206,1.0
Be4 Ni2 O20 Si4 Yb4,5,0.0,0.0,0.1176,0.5882,0.0,0.1176,0.1176,0.0,0.1176,0.0588,-0.9412,3.44,1.1907,1.15,0.3964,6.0,1.9242,True,monoclinic,2/m,14,10.3439,6.0338,0.4617
Cu2 Pb2 Tb2,3,0.0,0.0,0.0,0.0,0.0,0.3333,0.0,0.0,0.3333,0.3333,2.3333,2.33,1.0124,0.45,0.2014,4.0,1.633,True,hexagonal,6mm,186,22.8089,10.427,0.6258
Cu2 Si2 Yb2,3,0.0,0.0,0.0,0.0,0.0,0.3333,0.3333,0.0,0.3333,0.3333,0.3333,1.9,0.8957,0.65,0.2677,5.0,2.1602,True,hexagonal,6/mmm,194,19.4086,7.5482,0.5061
Rh4 Tb2,2,0.0,0.0,0.0,0.0,0.0,0.3333,0.0,0.0,0.3333,0.6667,3.0,2.28,1.0748,0.4,0.1886,3.0,1.4142,True,cubic,m-3m,227,18.1035,11.1518,1.0
B28 La8 Re12,3,0.0,0.0,0.0,0.0,0.0,0.1667,0.5833,0.0,0.1667,0.4167,3.25,0.94,0.3398,1.1,0.4112,6.0,2.4495,True,orthorhombic,mmm,54,12.7625,9.8896,0.5825
Cu4 Hf2 Te6,3,0.0,0.0,0.0,0.5,0.0,0.0,0.5,0.0,0.0,0.5,0.3333,0.8,0.2828,0.2,0.0672,2.0,0.6872,True,monoclinic,2/m,12,25.1721,7.5685,0.3916
Cu4 Se6 Sn2,3,0.0,0.0,0.0,0.5,0.0,0.0,0.0,0.0,0.0,0.3333,-1.0,0.65,0.3156,0.3,0.1213,1.0,0.3727,True,monoclinic,m,9,24.0041,5.5651,1.0058
Be17 Ca12 O29,3,0.0,0.0,0.5,0.5,0.0,0.0,0.0,0.0,0.0,0.0,-0.0,2.44,1.0715,1.2,0.4613,2.0,0.8102,True,cubic,-43m,216,12.0509,2.6089,1.0
Ho2 O12 Rh2 Sr6,4,0.0,0.0,0.2727,0.5455,0.0,0.0909,0.0,0.0,0.0909,0.0909,0.0,2.49,1.1341,1.4,0.6312,6.0,1.9667,True,trigonal,-3m,167,14.5874,6.4853,1.0
Pd6 Ti4,2,0.0,0.0,0.0,0.0,0.0,0.0,0.0,0.0,0.0,1.0,2.8,0.66,0.3233,0.0,0.0,1.0,0.4899,True,orthorhombic,mmm,63,15.7719,8.7385,0.6125
B4 Dy8 Fe56,3,0.0,0.0,0.0,0.0,0.0,0.1176,0.0588,0.0,0.1176,0.8235,2.1765,0.82,0.207,0.9,0.1792,6.0,1.4118,True,tetragonal,4/mmm,136,13.3369,8.1856,0.7336
Al8 Fe4 Tb1,3,0.0,0.0,0.0,0.0,0.0,0.0769,0.0,0.0,0.0769,0.3077,2.6923,1.83,0.4595,0.5,0.1378,5.0,1.3234,True,tetragonal,4/mmm,139,14.6525,5.2145,0.7555
Cl11 N3 P4,3,0.0,0.0,0.0,0.0,0.6111,0.0,0.0,0.0,0.0,0.0,-1.7778,0.97,0.395,0.35,0.1304,1.0,0.3727,True,trigonal,3,146,28.5156,1.7984,1.0
Cl2 O2 Ti2,3,0.0,0.0,0.0,0.3333,0.3333,0.0,0.0,0.0,0.0,0.3333,0.3333,1.9,0.8375,0.8,0.3266,2.0,0.8165,True,orthorhombic,mmm,59,17.7769,3.0925,0.3982
C1 Ca1 F1 K1 O3,5,0.0,0.1429,0.1429,0.4286,0.1429,0.0,0.0,0.0,0.0,0.0,-1.1429,3.16,1.1784,1.7,0.6437,2.0,0.9035,True,hexagonal,-6m2,187,14.8716,2.5232,1.1457
C8 Cu4 K4 N8,4,0.0,0.1667,0.0,0.0,0.0,0.0,0.0,0.0,0.0,0.1667,-1.8333,2.22,0.7712,1.55,0.574,2.0,0.9428,True,monoclinic,2/m,14,18.1494,2.3587,0.9592
Ce4 In2,2,0.0,0.0,0.0,0.0,0.0,0.6667,0.0,0.0,0.6667,0.0,3.0,0.66,0.3111,0.3,0.1414,3.0,1.4142,True,hexagonal,6/mmm,194,29.0446,7.5286,0.8188
Ca2 Mn2 Sn2,3,0.0,0.0,0.3333,0.0,0.0,0.0,0.0,0.0,0.0,0.3333,0.0,0.96,0.3933,0.4,0.178,1.0,0.4714,True,tetragonal,4/mmm,129,25.1346,4.7067,0.616
Fe8 K40 O32,3,0.0,0.5,0.0,0.4,0.0,0.0,0.0,0.0,0.0,0.1,-0.1,2.62,1.2359,1.6,0.7547,2.0,0.9798,True,orthorhombic,mmm,61,20.138,2.6002,0.3298
Ge2 Li4 O10 Ti2,4,0.0,0.2222,0.0,0.5556,0.0,0.0,0.1111,0.0,0.0,0.1111,-0.8889,2.46,1.0644,0.85,0.3951,2.0,0.8315,True,tetragonal,4/mmm,129,11.2159,3.5267,0.6836
C1 In1 Tb3,3,0.0,0.0,0.0,0.0,0.0,0.6,0.0,0.0,0.6,0.0,1.6,2.55,1.0882,1.05,0.4074,6.0,2.4,True,cubic,m-3m,221,35.3008,5.6787,1.0
Li2 Mn4 O24 P6,4,0.0,0.0556,0.0,0.6667,0.0,0.0,0.0,0.0,0.0,0.1111,-1.5556,2.46,0.8279,0.85,0.3111,2.0,0.6781,True,triclinic,-1,2,12.022,3.0827,1.0613
Ge2 Hf2 Se2,3,0.0,0.0,0.0,0.3333,0.0,0.0,0.3333,0.0,0.0,0.3333,-0.6667,1.25,0.5119,0.4,0.17,2.0,0.9428,True,tetragonal,4/mmm,129,19.0807,9.5756,0.4517
In4 O14 Si4,3,0.0,0.0,0.0,0.6364,0.0,0.0,0.1818,0.0,0.0,0.0,-1.4545,1.66,0.7705,0.95,0.3742,3.0,1.1355,True,cubic,m-3m,227,9.8878,6.0733,1.0
Pd2 Pr2 Sb4,3,0.0,0.0,0.0,0.0,0.0,0.25,0.5,0.0,0.25,0.25,-0.25,1.07,0.4245,0.45,0.1816,3.0,1.299,True,tetragonal,4/mmm,129,25.459,8.0038,0.4508
Ba6 Cu6 O24 Sc8,4,0.0,0.0,0.1364,0.5455,0.0,0.0,0.0,0.0,0.0,0.3182,0.0,2.55,1.0587,1.55,0.5837,4.0,1.4345,True,tetragonal,4/mmm,140,13.9257,5.2816,0.8903
Ba3 O1 Sn1,3,0.0,0.0,0.6,0.2,0.0,0.0,0.0,0.0,0.0,0.0,-0.0,2.55,1.0026,1.55,0.6132,4.0,1.5492,True,cubic,m-3m,221,33.7432,5.3806,1.0
Ge4 Rh4 Yb4,3,0.0,0.0,0.0,0.0,0.0,0.3333,0.3333,0.0,0.3333,0.3333,0.6667,2.28,1.0172,0.5,0.216,4.0,1.6997,True,orthorhombic,mmm,62,18.7499,10.2906,0.6194
Ga5 Pd13,2,0.0,0.0,0.0,0.0,0.0,0.0,0.0,0.0,0.0,0.7222,2.2778,0.39,0.1747,0.1,0.0448,1.0,0.4479,True,monoclinic,2/m,12,15.1756,10.5293,0.3288
Co26 La2,2,0.0,0.0,0.0,0.0,0.0,0.0714,0.0,0.0,0.0714,1.0,2.0714,0.78,0.2009,0.6,0.1545,4.0,1.0302,True,cubic,m-3m,226,12.7981,8.3877,1.0
Ni4 O12 Sm4,3,0.0,0.0,0.0,0.6,0.0,0.2,0.0,0.0,0.2,0.2,-0.2,2.27,0.9598,1.25,0.5148,6.0,2.3324,True,orthorhombic,mmm,62,11.3181,7.5427,0.7007
Cd2 Ho4 S8,3,0.0,0.0,0.0,0.0,0.0,0.2857,0.0,0.0,0.2857,0.1429,0.0,1.35,0.609,0.75,0.3437,5.0,2.1853,True,cubic,m-3m,227,25.5164,5.3041,1.0
Ni5 O16 P4,3,0.0,0.0,0.0,0.64,0.0,0.0,0.0,0.0,0.0,0.2,-1.36,1.53,0.6798,0.75,0.3038,2.0,0.804,True,triclinic,1,1,11.9694,3.7366,1.5679
Ir6 Sc2 Si14,3,0.0,0.0,0.0,0.0,0.0,0.0,0.6364,0.0,0.0,0.3636,-1.4545,0.84,0.2236,0.5,0.1639,3.0,1.3111,True,trigonal,-3m,167,15.0561,8.2037,1.0
Bi12 Dy20,2,0.0,0.0,0.0,0.0,0.0,0.625,0.0,0.0,0.625,0.0,3.0,0.8,0.3873,0.15,0.0726,2.0,0.9682,True,orthorhombic,mmm,62,29.7176,10.054,0.686
Au4 O14 Se4,3,0.0,0.0,0.0,0.8182,0.0,0.0,0.0,0.0,0.0,0.1818,-1.0909,0.9,0.4305,0.75,0.3184,4.0,1.5641,True,orthorhombic,mm2,32,16.4275,6.1003,0.3709
Pd8 Si4 Y4,3,0.0,0.0,0.0,0.0,0.0,0.0,0.25,0.0,0.0,0.75,0.75,0.98,0.4002,0.7,0.2487,2.0,0.866,True,orthorhombic,mmm,62,17.8709,7.6618,0.7514
Ni1 O1,2,0.0,0.0,0.0,0.5,0.0,0.0,0.0,0.0,0.0,0.5,0.0,1.53,0.765,0.75,0.375,2.0,1.0,True,cubic,m-3m,225,9.3917,6.6032,1.0
F6 K2 Rh1,3,0.0,0.2222,0.0,0.0,0.6667,0.0,0.0,0.0,0.0,0.1111,-0.1111,3.16,1.3214,1.7,0.7068,3.0,1.1331,True,trigonal,-3m,164,15.6616,3.4764,1.2281
As2 Cu4 K1,3,0.0,0.1429,0.0,0.0,0.0,0.0,0.2857,0.0,0.0,0.5714,0.4286,1.36,0.4284,1.05,0.3324,0.0,0.0,True,trigonal,-3m,166,18.2366,5.7641,1.0
F16 O8 S8,3,0.0,0.0,0.0,0.25,0.5,0.0,0.0,0.0,0.0,0.0,-1.5,1.4,0.5724,0.5,0.2062,1.0,0.433,True,monoclinic,2/m,14,18.3535,1.9466,0.3618
Cr1 Ir3,2,0.0,0.0,0.0,0.0,0.0,0.0,0.0,0.0,0.0,1.0,3.0,0.54,0.2338,0.05,0.0217,2.0,0.866,True,cubic,m-3m,221,13.9944,18.6484,1.0
Li6 O24 P6 V3,4,0.0,0.1538,0.0,0.6154,0.0,0.0,0.0,0.0,0.0,0.0769,-1.1538,2.46,0.9588,0.85,0.3414,2.0,0.6057,True,triclinic,1,1,11.5948,2.8066,1.1266
Cu2 Mn4 O8,3,0.0,0.0,0.0,0.5714,0.0,0.0,0.0,0.0,0.0,0.4286,-0.2857,1.89,0.8842,0.8,0.388,2.0,0.9897,True,orthorhombic,mmm,74,11.299,4.9846,1.0
F8 O4 Se4,3,0.0,0.0,0.0,0.5,0.5,0.0,0.0,0.0,0.0,0.0,-1.5,1.43,0.5844,0.65,0.2701,2.0,0.866,True,orthorhombic,mm2,29,17.9516,3.0746,0.738
In3 Lu1,2,0.0,0.0,0.0,0.0,0.0,0.25,0.0,0.0,0.25,0.0,3.0,0.51,0.2208,0.2,0.0866,1.0,0.433,True,cubic,m-3m,221,24.5013,8.8007,1.0
As2 Ba4,2,0.0,0.0,0.6667,0.0,0.0,0.0,0.3333,0.0,0.0,0.0,0.3333,1.29,0.6081,1.0,0.4714,2.0,0.9428,True,tetragonal,4/mmm,139,39.2484,4.93,0.5252
Ir12 Mg87,2,0.0,0.0,0.8788,0.0,0.0,0.0,0.0,0.0,0.0,0.1212,2.1212,0.89,0.2905,0.15,0.049,3.0,0.9791,True,cubic,-43m,216,20.4899,3.6192,1.0
As6 Ca6,2,0.0,0.0,0.5,0.0,0.0,0.0,0.5,0.0,0.0,0.0,-0.5,1.18,0.59,0.65,0.325,0.0,0.0,True,hexagonal,-6m2,189,26.7769,3.5658,1.337
Ag1 Cr1 O2,3,0.0,0.0,0.0,0.5,0.0,0.0,0.0,0.0,0.0,0.5,0.0,1.78,0.828,1.0,0.4555,3.0,1.299,True,trigonal,-3m,166,12.6814,6.2808,1.0
Bi4 Pd12,2,0.0,0.0,0.0,0.0,0.0,0.0,0.0,0.0,0.0,0.75,2.25,0.18,0.0779,0.2,0.0866,1.0,0.433,True,orthorhombic,mmm,51,17.8588,12.2792,0.5314
Mg2 O12 Ta4,3,0.0,0.0,0.1111,0.6667,0.0,0.0,0.0,0.0,0.0,0.2222,0.0,2.13,0.9458,0.9,0.4088,4.0,1.633,True,tetragonal,4/mmm,136,11.7516,7.5706,0.5158
Ge24 Pd4 Yb8,3,0.0,0.0,0.0,0.0,0.0,0.2222,0.6667,0.0,0.2222,0.1111,-1.7778,2.2,0.8489,0.5,0.2043,4.0,1.633,True,orthorhombic,mmm,64,20.7311,7.9061,0.2551
B16 Ru24 U8,3,0.1667,0.0,0.0,0.0,0.0,0.0,0.3333,0.0,0.1667,0.5,3.5,0.82,0.2907,0.9,0.3092,7.0,2.357,True,trigonal,-3,147,13.0568,11.9306,1.8601
Cu2 O2 S2 Sr2 Zn1,5,0.0,0.0,0.2222,0.2222,0.0,0.0,0.0,0.0,0.0,0.3333,0.2222,2.49,0.8789,1.4,0.4859,3.0,1.0657,True,tetragonal,4/mmm,139,16.1181,5.3099,0.4307
Dy4 Ga18 Ru6,3,0.0,0.0,0.0,0.0,0.0,0.1429,0.0,0.0,0.1429,0.2143,3.0,0.98,0.2869,0.45,0.1575,4.0,1.3721,True,orthorhombic,mmm,63,16.9927,8.7649,0.7689
Ir2 La4 Mg2 O12,4,0.0,0.0,0.1,0.6,0.0,0.2,0.0,0.0,0.2,0.3,-0.1,2.34,1.0269,1.35,0.559,6.0,2.4515,True,monoclinic,2/m,14,12.7456,7.691,0.703
Sr1,1,0.0,0.0,1.0,0.0,0.0,0.0,0.0,0.0,0.0,0.0,2.0,0.0,0.0,0.0,0.0,0.0,0.0,True,cubic,m-3m,225,54.876,2.6514,1.0
Be8 V4,2,0.0,0.0,0.6667,0.0,0.0,0.0,0.0,0.0,0.0,0.3333,3.0,0.06,0.0283,0.3,0.1414,2.0,0.9428,True,hexagonal,6/mmm,194,9.698,3.9362,0.6198
Ni4 Sc4 Sn2,3,0.0,0.0,0.0,0.0,0.0,0.0,0.0,0.0,0.0,0.8,1.2,0.6,0.2782,0.25,0.1122,1.0,0.4,True,tetragonal,4/mmm,127,17.1282,6.3211,0.4693
Lu1 Na1 S2,3,0.0,0.25,0.0,0.0,0.0,0.25,0.0,0.0,0.25,0.0,0.0,1.65,0.7497,0.8,0.3879,3.0,1.299,True,trigonal,-3m,166,21.9829,4.9494,1.0
Mo8 Sb16 Se8,3,0.0,0.0,0.0,0.25,0.0,0.0,0.5,0.0,0.0,0.25,-1.0,0.5,0.2056,0.3,0.1299,1.0,0.433,True,monoclinic,2/m,14,25.6344,6.7761,0.3507
Ba4 F12 Pd2,3,0.0,0.0,0.2222,0.0,0.6667,0.0,0.0,0.0,0.0,0.1111,0.0,3.09,1.3006,1.65,0.6908,4.0,1.7498,True,orthorhombic,mmm,64,19.072,4.7893,0.6808
Cd2 Cl12 Rb8,3,0.0,0.3636,0.0,0.0,0.5455,0.0,0.0,0.0,0.0,0.0909,0.0,2.34,1.1037,1.35,0.6306,2.0,0.9959,True,trigonal,-3m,167,33.5514,3.001,1.0
Ir2 V6,2,0.0,0.0,0.0,0.0,0.0,0.0,0.0,0.0,0.0,1.0,4.5,0.57,0.2468,0.0,0.0,2.0,0.866,True,cubic,m-3m,223,13.7116,10.4466,1.0
Ni2 O8 Pr4,3,0.0,0.0,0.0,0.5714,0.0,0.2857,0.0,0.0,0.2857,0.1429,0.0,2.31,1.0427,1.25,0.5579,6.0,2.6186,True,orthorhombic,mmm,64,13.6471,7.0313,0.809
O14 Sc4 Si4,3,0.0,0.0,0.0,0.6364,0.0,0.0,0.1818,0.0,0.0,0.1818,-1.4545,2.08,0.8858,1.0,0.391,2.0,0.782,True,cubic,m-3m,227,9.3563,4.1639,1.0
As2 La1 Ni2,3,0.0,0.0,0.0,0.0,0.0,0.2,0.4,0.0,0.2,0.6,0.2,1.08,0.3968,0.8,0.2939,4.0,1.6,True,tetragonal,4/mmm,139,17.4012,7.7512,0.7098
O8 Tb2 V2,3,0.0,0.0,0.0,0.6667,0.0,0.1667,0.0,0.0,0.1667,0.1667,0.0,3.44,1.3239,1.15,0.4625,6.0,2.2111,True,tetragonal,4/mmm,141,13.9303,5.4409,1.0
Ce1 Co2 Ge2,3,0.0,0.0,0.0,0.0,0.0,0.2,0.4,0.0,0.2,0.4,-0.2,0.89,0.3351,0.6,0.2245,4.0,1.6,True,tetragonal,4/mmm,139,16.5604,8.0872,0.7119