formula,numberOfSpecies,fracActinoid,fracAlkali,fracAlkaline,fracChalcogen,fracHalogen,fracLanthanoid,fracMetalloid,fracNobleGas,fracRareEarth,fracTransitionMetal,electronsPerAtom,electronegativityRange,electronegativityStd,radiiRange,radiiStd,rowRange,rowStd,ordered,crystalSystem,pointGroup,spaceGroupNumber,volumePerSite,density,c_a
Co2 I8 Rb4,3,0.0,0.2857,0.0,0.0,0.5714,0.0,0.0,0.0,0.0,0.1429,0.0,1.84,0.8052,1.0,0.434,1.0,0.3499,True,monoclinic,2/m,11,45.9362,3.8085,0.7414
F5 Sm10,2,0.0,0.0,0.0,0.0,0.3333,0.6667,0.0,0.0,0.6667,0.0,1.6667,2.81,1.3246,1.35,0.6364,6.0,2.8284,True,monoclinic,m,8,26.9454,6.5677,0.2309
Na2 Nd2 O10 Ti3,4,0.0,0.1176,0.0,0.5882,0.0,0.1176,0.0,0.0,0.1176,0.1765,0.0,2.51,1.0902,1.25,0.5308,6.0,1.917,True,tetragonal,4/mmm,139,12.5495,4.9663,0.263
S4 Sc2 U2,3,0.25,0.0,0.0,0.0,0.0,0.0,0.0,0.0,0.25,0.25,1.25,1.22,0.605,0.75,0.3416,6.0,2.4875,True,tetragonal,4/mmm,141,19.1696,7.5171,1.1557
H36 Nd4 O40 P8,4,0.0,0.0,0.0,0.4545,0.0,0.0455,0.0,0.0,0.0455,0.0,-1.4545,2.3,0.6966,1.6,0.3649,7.0,1.4609,True,orthorhombic,mmm,52,9.9998,2.8324,0.6225
Pd2 Si2 Th1,3,0.2,0.0,0.0,0.0,0.0,0.0,0.4,0.0,0.2,0.4,0.0,0.9,0.3286,0.7,0.2577,6.0,2.1909,True,tetragonal,4/mmm,139,18.0595,9.2141,0.7199
B4 W4,2,0.0,0.0,0.0,0.0,0.0,0.0,0.5,0.0,0.0,0.5,3.5,0.32,0.16,0.5,0.25,4.0,2.0,True,tetragonal,4/mmm,141,10.5412,15.3315,0.3572
Li1 Pt7,2,0.0,0.125,0.0,0.0,0.0,0.0,0.0,0.0,0.0,0.875,1.875,1.3,0.4299,0.1,0.0331,4.0,1.3229,True,cubic,m-3m,225,15.225,18.7122,1.0
Ca2 O6 Sn2,3,0.0,0.0,0.2,0.6,0.0,0.0,0.0,0.0,0.0,0.0,-1.6,2.44,1.007,1.2,0.5142,3.0,1.2649,True,cubic,m-3m,221,13.4483,5.1066,1.0
Mn4 Pu2,2,0.3333,0.0,0.0,0.0,0.0,0.0,0.0,0.0,0.3333,0.6667,2.6667,0.27,0.1273,0.35,0.165,5.0,2.357,True,cubic,m-3m,227,13.577,14.427,1.0
Mo4 O32 P8,3,0.0,0.0,0.0,0.7273,0.0,0.0,0.0,0.0,0.0,0.0909,-1.6364,1.28,0.5612,0.85,0.2688,3.0,0.8907,True,monoclinic,2/m,14,15.9056,2.7133,0.46
Dy1 Ge2 Mn2,3,0.0,0.0,0.0,0.0,0.0,0.2,0.4,0.0,0.2,0.4,-0.2,0.79,0.3041,0.5,0.1828,4.0,1.6,True,tetragonal,4/mmm,139,16.8593,8.2273,0.6454
Ba1 Os2 P2,3,0.0,0.0,0.2,0.0,0.0,0.0,0.0,0.0,0.0,0.4,0.8,1.31,0.522,1.15,0.4219,3.0,1.4697,True,tetragonal,4/mmm,139,20.4931,9.3951,0.6016
As2 Ca2 F2 Mg2 O8,5,0.0,0.0,0.25,0.5,0.125,0.0,0.125,0.0,0.0,0.0,-1.0,2.98,1.0531,1.3,0.4677,2.0,0.857,True,monoclinic,2/m,15,12.7274,3.6254,0.7862
F12 K4 Zr2,3,0.0,0.2222,0.0,0.0,0.6667,0.0,0.0,0.0,0.0,0.1111,0.0,3.16,1.4163,1.7,0.7213,3.0,1.1331,True,monoclinic,2/m,15,15.3247,3.4122,0.9407
Ni1 Sb1 Sc1,3,0.0,0.0,0.0,0.0,0.0,0.0,0.3333,0.0,0.0,0.6667,0.6667,0.69,0.2978,0.25,0.1027,1.0,0.4714,True,cubic,-43m,216,19.0152,6.5614,1.0
Cu2 K4 Sb2,3,0.0,0.5,0.0,0.0,0.0,0.0,0.25,0.0,0.0,0.25,0.25,1.23,0.5799,0.85,0.4016,1.0,0.433,True,orthorhombic,mmm,63,33.0375,3.3111,0.9437
In3 Mg3 Sm3,3,0.0,0.0,0.3333,0.0,0.0,0.3333,0.0,0.0,0.3333,0.0,2.6667,0.61,0.2609,0.35,0.1546,5.0,2.0548,True,hexagonal,-6m2,189,26.7698,5.9856,1.616
Mg4 Mo6 O16,3,0.0,0.0,0.1538,0.6154,0.0,0.0,0.0,0.0,0.0,0.2308,0.0,2.13,0.8294,0.9,0.4235,3.0,1.2308,True,hexagonal,6mm,186,12.4459,4.7664,0.6618
As1 Rh2,2,0.0,0.0,0.0,0.0,0.0,0.0,0.3333,0.0,0.0,0.6667,1.0,0.1,0.0471,0.2,0.0943,1.0,0.4714,True,cubic,m-3m,225,15.8958,9.7755,1.0
C1 Sc1,2,0.0,0.0,0.0,0.0,0.0,0.0,0.0,0.0,0.0,0.5,-0.5,1.19,0.595,0.9,0.45,2.0,1.0,True,cubic,m-3m,225,12.8602,3.6778,1.0
Tc1 Ti1,2,0.0,0.0,0.0,0.0,0.0,0.0,0.0,0.0,0.0,1.0,4.0,0.36,0.18,0.05,0.025,1.0,0.5,True,cubic,m-3m,221,14.9946,8.0768,1.0
Mn2 Si2 Th1,3,0.2,0.0,0.0,0.0,0.0,0.0,0.4,0.0,0.2,0.4,0.0,0.6,0.2311,0.7,0.2577,6.0,2.245,True,tetragonal,4/mmm,139,16.5988,7.9649,0.6718
Pd8 Sn16,2,0.0,0.0,0.0,0.0,0.0,0.0,0.0,0.0,0.0,0.3333,-2.0,0.24,0.1131,0.05,0.0236,0.0,0.0,True,tetragonal,4/mmm,142,22.5222,8.4503,0.4981
I1 Na1,2,0.0,0.5,0.0,0.0,0.5,0.0,0.0,0.0,0.0,0.0,0.0,1.73,0.865,0.4,0.2,2.0,1.0,True,cubic,m-3m,225,34.8375,3.5724,1.0
Al1 C1 Co3,3,0.0,0.0,0.0,0.0,0.0,0.0,0.0,0.0,0.0,0.6,1.0,0.94,0.313,0.65,0.253,2.0,0.8,True,cubic,m-3m,221,10.32,6.9444,1.0
Al1 Cu2 Hf1,3,0.0,0.0,0.0,0.0,0.0,0.0,0.0,0.0,0.0,0.75,2.75,0.6,0.248,0.3,0.109,3.0,1.0897,True,cubic,m-3m,225,14.8964,9.2679,1.0
H12 O12 S2 Zn1,4,0.0,0.0,0.0,0.4444,0.0,0.0,0.0,0.0,0.0,0.037,-1.4074,1.79,0.6268,1.1,0.2784,3.0,0.7608,True,triclinic,-1,2,11.1035,1.8479,0.9314
Cl10 Co2 Tl6,3,0.0,0.0,0.0,0.0,0.5556,0.0,0.0,0.0,0.0,0.1111,-0.0,1.54,0.7368,0.9,0.4108,3.0,1.3699,True,tetragonal,4/mmm,140,29.8663,5.247,0.9055
Sb12 Sr20,2,0.0,0.0,0.625,0.0,0.0,0.0,0.375,0.0,0.0,0.0,0.125,1.1,0.5325,0.55,0.2663,0.0,0.0,True,orthorhombic,mmm,62,37.6561,4.4284,0.6528
Mn4 S8,2,0.0,0.0,0.0,0.0,0.0,0.0,0.0,0.0,0.0,0.3333,-0.6667,1.03,0.4855,0.4,0.1886,1.0,0.4714,True,orthorhombic,mmm,61,17.9831,3.6649,0.9869
C12 Co2 K6 N12,4,0.0,0.1875,0.0,0.0,0.0,0.0,0.0,0.0,0.0,0.0625,-2.3125,2.22,0.8037,1.55,0.5978,2.0,0.866,True,monoclinic,2/m,14,18.8547,1.8293,0.6815
Li4 O48 P12 Sn8,4,0.0,0.0556,0.0,0.6667,0.0,0.0,0.0,0.0,0.0,0.0,-2.2222,2.46,0.7619,0.85,0.322,3.0,0.9574,True,monoclinic,2/m,14,12.9448,3.7719,0.7017
C2 Co1 Tb1,3,0.0,0.0,0.0,0.0,0.0,0.25,0.0,0.0,0.25,0.25,-0.75,2.55,1.0439,1.05,0.4479,6.0,2.4495,True,orthorhombic,mm2,38,12.1984,8.2316,0.9583
Hf4 O12 Sr4,3,0.0,0.0,0.2,0.6,0.0,0.0,0.0,0.0,0.0,0.2,0.0,2.49,1.1395,1.4,0.593,4.0,1.7436,True,orthorhombic,mmm,62,13.8928,7.5087,0.7063
Ca10 Hg6,2,0.0,0.0,0.625,0.0,0.0,0.0,0.0,0.0,0.0,0.375,1.625,1.0,0.4841,0.3,0.1452,2.0,0.9682,True,tetragonal,4/mmm,140,31.5239,5.2818,0.8744
Dy2 Ir4,2,0.0,0.0,0.0,0.0,0.0,0.3333,0.0,0.0,0.3333,0.6667,3.0,0.98,0.462,0.4,0.1886,2.0,0.9428,True,cubic,m-3m,227,18.1652,16.6657,1.0
Fe12 O24 Zn6,3,0.0,0.0,0.0,0.5714,0.0,0.0,0.0,0.0,0.0,0.4286,-0.2857,1.79,0.8283,0.8,0.388,2.0,0.9897,True,trigonal,3m,156,11.1746,5.1181,0.3339
Bi4 O28 P8,3,0.0,0.0,0.0,0.7,0.0,0.0,0.0,0.0,0.0,0.0,-1.7,1.42,0.6004,1.0,0.3156,4.0,1.2,True,monoclinic,2/m,14,16.114,3.946,0.7503
Ce6 Ga24 Os6,3,0.0,0.0,0.0,0.0,0.0,0.1667,0.0,0.0,0.1667,0.1667,3.1667,1.08,0.3197,0.55,0.205,4.0,1.5275,True,orthorhombic,mmm,51,18.1307,9.2997,0.8064
Au2 Th1,2,0.3333,0.0,0.0,0.0,0.0,0.0,0.0,0.0,0.3333,0.6667,3.3333,1.24,0.5845,0.45,0.2121,3.0,1.4142,True,hexagonal,6/mmm,191,23.1237,14.9839,1.3986
K8 Si46,2,0.0,0.1481,0.0,0.0,0.0,0.0,0.8519,0.0,0.0,0.0,-3.2593,1.08,0.3837,1.1,0.3908,1.0,0.3552,True,cubic,m-3m,223,20.5189,2.4049,1.0
Al3 Li8 Si5,3,0.0,0.5,0.0,0.0,0.0,0.0,0.3125,0.0,0.0,0.0,-0.1875,0.92,0.4176,0.35,0.1556,1.0,0.5,True,cubic,-43m,215,15.2095,1.8895,1.0
Br16 Sn4,2,0.0,0.0,0.0,0.0,0.8,0.0,0.0,0.0,0.0,0.0,-1.6,1.0,0.4,0.3,0.12,1.0,0.4,True,monoclinic,2/m,14,48.6094,2.9947,0.6653
Cu3 S4 Ta1,3,0.0,0.0,0.0,0.0,0.0,0.0,0.0,0.0,0.0,0.5,0.375,1.08,0.4088,0.45,0.19,3.0,0.9682,True,cubic,-43m,215,21.1784,4.8989,1.0
C4 Cl12 Gd12,3,0.0,0.0,0.0,0.0,0.4286,0.4286,0.0,0.0,0.4286,0.0,0.2857,1.96,0.9165,1.1,0.444,6.0,2.6186,True,cubic,432,214,22.7343,6.1576,1.0
Ba4 O20 Se8,3,0.0,0.0,0.125,0.875,0.0,0.0,0.0,0.0,0.0,0.0,-1.5,2.55,0.8473,1.55,0.516,4.0,1.4142,True,monoclinic,2/m,14,17.3206,4.4969,0.383
La5 S8 Sm1,3,0.0,0.0,0.0,0.0,0.0,0.4286,0.0,0.0,0.4286,0.3571,0.1429,1.48,0.7268,0.95,0.4625,5.0,2.4744,True,tetragonal,-4,82,23.4989,5.5593,1.0
Ba3 Na3 P3,3,0.0,0.3333,0.3333,0.0,0.0,0.0,0.0,0.0,0.0,0.0,0.0,1.3,0.6036,1.15,0.4813,3.0,1.4142,True,hexagonal,-6m2,189,28.9879,3.6526,1.7035
Te2 Tm2,2,0.0,0.0,0.0,0.5,0.0,0.5,0.5,0.0,0.5,0.0,0.5,0.85,0.425,0.35,0.175,3.0,1.5,True,hexagonal,6/mmm,194,28.436,8.6582,0.5264
In2 Li2 O14 P4,4,0.0,0.0909,0.0,0.6364,0.0,0.0,0.0,0.0,0.0,0.0,-1.4545,2.46,0.85,0.95,0.3478,3.0,0.8907,True,monoclinic,2,4,13.2009,3.3815,0.5797
Li12 O8 Zn2,3,0.0,0.5455,0.0,0.3636,0.0,0.0,0.0,0.0,0.0,0.0909,-0.0,2.46,1.1526,0.85,0.403,2.0,0.575,True,tetragonal,4/mmm,137,9.3099,2.7736,0.7131
Al9 Ca1 Co2,3,0.0,0.0,0.0833,0.0,0.0,0.0,0.0,0.0,0.0,0.1667,2.75,0.88,0.2077,0.55,0.1516,1.0,0.433,True,hexagonal,6/mmm,191,17.3458,3.1973,2.0443
Er1 Ni2 P2,3,0.0,0.0,0.0,0.0,0.0,0.2,0.0,0.0,0.2,0.4,0.2,0.95,0.3474,0.75,0.2782,5.0,1.8547,True,tetragonal,4/mmm,139,13.8792,8.2934,0.7124
B2 Fe2 O6,3,0.0,0.0,0.0,0.6,0.0,0.0,0.2,0.0,0.0,0.2,-0.2,1.61,0.7403,0.8,0.3105,2.0,0.8,True,trigonal,-3m,167,9.3215,4.0849,1.0
B12 Th1,2,0.0769,0.0,0.0,0.0,0.0,0.0,0.9231,0.0,0.0769,0.0,3.0769,0.74,0.1972,0.95,0.2531,7.0,1.8653,True,cubic,m-3m,225,8.443,5.4732,1.0
K12 Mn2 Te8,3,0.0,0.5455,0.0,0.3636,0.0,0.0,0.3636,0.0,0.0,0.0909,0.0,1.28,0.6012,0.8,0.3983,1.0,0.481,True,hexagonal,6mm,186,40.6033,2.974,1.2934
F16 Sn6,2,0.0,0.0,0.0,0.0,0.7273,0.0,0.0,0.0,0.0,0.0,-1.8182,2.02,0.8996,0.95,0.4231,3.0,1.3361,True,monoclinic,2/m,14,17.1502,4.4725,0.4398
Al10 Au20,2,0.0,0.0,0.0,0.0,0.0,0.0,0.0,0.0,0.0,0.6667,3.0,0.93,0.4384,0.1,0.0471,3.0,1.4142,True,orthorhombic,mmm,58,16.9943,13.7094,0.1938
N4 Th3,2,0.4286,0.0,0.0,0.0,0.0,0.0,0.0,0.0,0.4286,0.0,0.0,1.74,0.8611,1.15,0.5691,7.0,3.4641,True,trigonal,-3m,166,17.0769,10.4482,1.0
F18 Nd6,2,0.0,0.0,0.0,0.0,0.75,0.25,0.0,0.0,0.25,0.0,0.0,2.84,1.2298,1.35,0.5846,6.0,2.5981,True,hexagonal,6/mmm,193,12.8964,6.4778,1.0042
Mg16 Pd8,2,0.0,0.0,0.6667,0.0,0.0,0.0,0.0,0.0,0.0,0.3333,2.0,0.89,0.4196,0.1,0.0471,2.0,0.9428,True,cubic,m-3m,227,18.5912,4.6157,1.0
Dy1 Si2,2,0.0,0.0,0.0,0.0,0.0,0.3333,0.6667,0.0,0.3333,0.0,-1.6667,0.68,0.3206,0.65,0.3064,5.0,2.357,True,hexagonal,6/mmm,191,19.1583,6.3178,1.0492
F2 Li2 O6 S2,4,0.0,0.1667,0.0,0.5,0.1667,0.0,0.0,0.0,0.0,0.0,-1.3333,3.0,0.9827,0.95,0.3347,1.0,0.3727,True,monoclinic,2/m,12,14.6381,2.0041,0.9195
Cd1 Hg2 Ti1,3,0.0,0.0,0.0,0.0,0.0,0.0,0.0,0.0,0.0,1.0,2.0,0.46,0.1997,0.15,0.0545,2.0,0.8292,True,tetragonal,4/mmm,123,20.7015,11.2591,0.9281
F12 I4,2,0.0,0.0,0.0,0.0,1.0,0.0,0.0,0.0,0.0,0.0,-1.0,1.32,0.5716,0.9,0.3897,3.0,1.299,True,orthorhombic,mmm,62,18.2158,4.191,0.5182
Li2 O4 Yb2,3,0.0,0.25,0.0,0.5,0.0,0.25,0.0,0.0,0.25,0.0,0.0,3.44,1.5151,1.15,0.5111,6.0,2.5981,True,tetragonal,4/mmm,141,11.618,7.5745,0.8242
As8 In8,2,0.0,0.0,0.0,0.0,0.0,0.0,0.5,0.0,0.0,0.0,0.0,0.4,0.2,0.4,0.2,1.0,0.5,True,cubic,m-3,205,27.0713,5.8193,1.0
Br1 Li1,2,0.0,0.5,0.0,0.0,0.5,0.0,0.0,0.0,0.0,0.0,0.0,1.98,0.99,0.3,0.15,2.0,1.0,True,cubic,m-3m,225,20.9496,3.4418,1.0
Cd2 Hg1,2,0.0,0.0,0.0,0.0,0.0,0.0,0.0,0.0,0.0,1.0,1.6667,0.31,0.1461,0.05,0.0236,1.0,0.4714,True,tetragonal,4/mmm,139,24.1036,9.7691,0.7678
Ni2 Ta2 Te10,3,0.0,0.0,0.0,0.7143,0.0,0.0,0.7143,0.0,0.0,0.2857,-0.4286,0.6,0.2094,0.1,0.0267,2.0,0.5345,True,orthorhombic,mmm,63,28.1622,7.3927,0.2432
Ho1 Mn12,2,0.0,0.0,0.0,0.0,0.0,0.0769,0.0,0.0,0.0769,0.9231,2.0769,0.32,0.0853,0.35,0.0933,4.0,1.0659,True,tetragonal,4/mmm,139,12.338,8.5327,0.7453
Nd8 Rh4 Si12,3,0.0,0.0,0.0,0.0,0.0,0.3333,0.5,0.0,0.3333,0.1667,-0.5,1.14,0.4249,0.75,0.3359,5.0,2.2361,True,hexagonal,6/mmm,194,20.6613,6.3713,0.9934
Hf6 Rh6 Sn6,3,0.0,0.0,0.0,0.0,0.0,0.0,0.0,0.0,0.0,0.6667,1.0,0.98,0.408,0.2,0.0816,1.0,0.4714,True,hexagonal,-6m2,190,19.0197,11.6439,1.0203
Be4 Ho4 O14 Si2,4,0.0,0.0,0.1667,0.5833,0.0,0.1667,0.0833,0.0,0.1667,0.0,-0.6667,2.21,0.9701,1.15,0.4242,6.0,2.2158,True,tetragonal,-42m,113,10.648,6.3415,0.6533
O28 P8 Pt4,3,0.0,0.0,0.0,0.7,0.0,0.0,0.0,0.0,0.0,0.1,-1.8,1.25,0.5596,0.75,0.2534,4.0,1.2,True,monoclinic,2/m,14,12.6819,4.832,0.7641
Eu3 Ir6 P6,3,0.0,0.0,0.0,0.0,0.0,0.2,0.0,0.0,0.2,0.4,0.4,2.2,0.878,0.85,0.3121,5.0,1.9391,True,trigonal,32,154,18.5866,10.6913,0.9446
Co3 Sn3 Zr3,3,0.0,0.0,0.0,0.0,0.0,0.0,0.0,0.0,0.0,0.6667,0.6667,0.63,0.28,0.2,0.0816,1.0,0.4714,True,hexagonal,-6m2,189,17.7924,8.3644,1.9825
In1 N1 Ti3,3,0.0,0.0,0.0,0.0,0.0,0.0,0.0,0.0,0.0,0.6,2.4,1.5,0.5835,0.9,0.3203,3.0,0.9798,True,cubic,m-3m,221,14.8342,6.0991,1.0
Br12 P4,2,0.0,0.0,0.0,0.0,0.75,0.0,0.0,0.0,0.0,0.0,-1.5,0.77,0.3334,0.15,0.065,1.0,0.433,True,orthorhombic,mmm,62,44.6526,2.5166,0.6345
Ca4 P4 S12,3,0.0,0.0,0.2,0.0,0.0,0.0,0.0,0.0,0.0,0.0,-1.4,1.58,0.6119,0.8,0.32,1.0,0.4,True,monoclinic,2/m,14,22.5732,2.4606,0.7145
Ba1 La1 O6 Ta1 Zn1,5,0.0,0.0,0.1,0.6,0.0,0.1,0.0,0.0,0.1,0.3,0.0,2.55,1.0731,1.55,0.5903,6.0,2.1541,True,cubic,-43m,216,13.6061,7.5495,1.0
Ag2 Th4,2,0.6667,0.0,0.0,0.0,0.0,0.0,0.0,0.0,0.6667,0.3333,3.0,0.63,0.297,0.2,0.0943,4.0,1.8856,True,tetragonal,4/mmm,140,28.2729,11.1972,0.9515
Be4 Li4 N4,3,0.0,0.3333,0.3333,0.0,0.0,0.0,0.0,0.0,0.0,0.0,0.0,2.06,0.8662,0.8,0.3266,0.0,0.0,True,monoclinic,2/m,14,8.5987,1.9286,0.9258
Br18 Te2 W2,3,0.0,0.0,0.0,0.0909,0.8182,0.0,0.0909,0.0,0.0,0.0909,-0.6364,0.86,0.287,0.25,0.0874,2.0,0.6166,True,monoclinic,2/m,11,39.7543,3.9134,0.5844
Cu4 In1 Tb1,3,0.0,0.0,0.0,0.0,0.0,0.1667,0.0,0.0,0.1667,0.6667,2.3333,1.9,0.7005,0.4,0.1528,4.0,1.4625,True,cubic,-43m,216,15.7821,9.2578,1.0
Ca2 O18 V8,3,0.0,0.0,0.0714,0.6429,0.0,0.0,0.0,0.0,0.0,0.2857,0.2857,2.44,0.9398,1.2,0.4166,2.0,0.9583,True,tetragonal,4/m,85,13.1621,3.495,0.6158
Li2 O4 U1,3,0.1429,0.2857,0.0,0.5714,0.0,0.0,0.0,0.0,0.1429,0.0,0.0,2.46,1.158,1.15,0.4792,7.0,2.4495,True,tetragonal,4/mmm,139,14.3379,5.2267,0.7123
Ba1 Bi2 O5,3,0.0,0.0,0.125,0.625,0.0,0.0,0.0,0.0,0.0,0.0,-0.25,2.55,0.929,1.55,0.5945,4.0,1.9365,True,tetragonal,4/mmm,123,20.7603,6.3518,0.4372
Pu2 Rh4,2,0.3333,0.0,0.0,0.0,0.0,0.0,0.0,0.0,0.3333,0.6667,3.3333,1.0,0.4714,0.4,0.1886,4.0,1.8856,True,cubic,m-3m,227,16.9365,14.7006,1.0
Sr1 Zn5,2,0.0,0.0,0.1667,0.0,0.0,0.0,0.0,0.0,0.0,0.8333,2.0,0.7,0.2609,0.65,0.2422,1.0,0.3727,True,hexagonal,6/mmm,191,19.1658,5.9878,1.3213
N4 U2 Zr2,3,0.25,0.0,0.0,0.0,0.0,0.0,0.0,0.0,0.25,0.25,1.0,1.71,0.8427,1.1,0.505,7.0,2.8723,True,tetragonal,4/mmm,141,13.281,11.1673,1.1562
Cr4 O28 P8,3,0.0,0.0,0.0,0.7,0.0,0.0,0.0,0.0,0.0,0.1,-1.7,1.78,0.6679,0.8,0.2653,2.0,0.6633,True,triclinic,-1,2,12.0692,3.1086,0.4839
Ge2 La1 Ni2,3,0.0,0.0,0.0,0.0,0.0,0.2,0.4,0.0,0.2,0.6,-0.2,0.91,0.3469,0.7,0.2638,4.0,1.6,True,tetragonal,4/mmm,139,17.5164,7.6137,0.7269
Ca18 K2 Mg2 O56 P14,5,0.0,0.0217,0.2174,0.6087,0.0,0.0,0.0,0.0,0.0,0.0,-1.2174,2.62,1.0277,1.6,0.5068,2.0,0.8203,True,trigonal,3m,161,12.9279,3.0405,1.0
C1 In1 La3,3,0.0,0.0,0.0,0.0,0.0,0.6,0.0,0.0,0.6,0.6,1.6,1.45,0.5758,1.25,0.4854,6.0,2.4,True,cubic,m-3m,221,28.9415,6.2373,1.0
F5 K1 O1 Rb2 Zr1,5,0.0,0.3,0.0,0.1,0.5,0.0,0.0,0.0,0.0,0.1,0.0,3.16,1.4566,1.85,0.8098,3.0,1.3748,True,tetragonal,4mm,107,20.2487,3.3807,1.0049
Ag4 S2,2,0.0,0.0,0.0,0.0,0.0,0.0,0.0,0.0,0.0,0.6667,0.0,0.65,0.3064,0.6,0.2828,2.0,0.9428,True,monoclinic,m,8,21.3554,6.4228,0.4755
Nb4 O16 S12 Sm12,4,0.0,0.0,0.0,0.3636,0.0,0.2727,0.0,0.0,0.2727,0.0909,0.0,2.27,0.9341,1.25,0.5074,6.0,2.4797,True,orthorhombic,mm2,33,16.9966,6.2543,0.469
Ca8 O16 Ru4,3,0.0,0.0,0.2857,0.5714,0.0,0.0,0.0,0.0,0.0,0.1429,-0.1429,2.44,1.0753,1.2,0.5341,3.0,1.1952,True,orthorhombic,mmm,61,13.0211,4.4675,0.4574
Al4 F20 H40 N8 O4,5,0.0,0.0,0.0,0.0526,0.2632,0.0,0.0,0.0,0.0,0.0,-1.0526,2.37,0.8112,1.0,0.2457,2.0,0.5955,True,orthorhombic,mmm,60,8.7162,1.7654,0.7262
Cu2 Li6 O16 P4,4,0.0,0.2143,0.0,0.5714,0.0,0.0,0.0,0.0,0.0,0.0714,-1.2143,2.46,1.0119,0.85,0.3634,2.0,0.589,True,monoclinic,m,7,12.2062,2.6655,1.354
Ga16 K16 Sb32,3,0.0,0.25,0.0,0.0,0.0,0.0,0.5,0.0,0.0,0.0,-0.5,1.23,0.5075,0.9,0.3518,1.0,0.5,True,orthorhombic,mmm,64,33.7477,4.3342,0.26
C4 Mn10,2,0.0,0.0,0.0,0.0,0.0,0.0,0.0,0.0,0.0,0.7143,0.2857,1.0,0.4518,0.7,0.3162,2.0,0.9035,True,monoclinic,2/m,15,9.2055,7.6976,0.7185
P24,1,0.0,0.0,0.0,0.0,0.0,0.0,0.0,0.0,0.0,0.0,-3.0,0.0,0.0,0.0,0.0,0.0,0.0,True,triclinic,-1,2,34.6414,1.4847,0.5013
Ge4 K4 O14 Zr2,4,0.0,0.1667,0.0,0.5833,0.0,0.0,0.1667,0.0,0.0,0.0833,-1.3333,2.62,1.0639,1.6,0.605,3.0,1.1149,True,monoclinic,2/m,15,15.1935,3.8862,0.4284
O48 Sc8 Se12,3,0.0,0.0,0.0,0.8824,0.0,0.0,0.0,0.0,0.0,0.1176,-1.4118,2.08,0.6981,1.0,0.3535,2.0,0.9113,True,monoclinic,2/m,14,15.8478,3.1976,0.7126
O20 Rb8 Si8,3,0.0,0.2222,0.0,0.5556,0.0,0.0,0.2222,0.0,0.0,0.0,-1.7778,2.62,1.0945,1.75,0.6972,3.0,1.1967,True,monoclinic,2/m,15,18.4314,3.0742,0.4524
Al2 B2 Ba1 O7,4,0.0,0.0,0.0833,0.5833,0.0,0.0,0.1667,0.0,0.0,0.0,0.0,2.55,0.9289,1.55,0.4507,4.0,1.118,True,trigonal,32,155,15.3224,2.9343,1.0
K32 O24 Sn8,3,0.0,0.5,0.0,0.375,0.0,0.0,0.0,0.0,0.0,0.0,-0.75,2.62,1.2128,1.6,0.741,3.0,1.111,True,orthorhombic,mmm,61,22.6458,2.9615,0.3447
Cd6 Sb12 Sr11,3,0.0,0.0,0.3793,0.0,0.0,0.0,0.4138,0.0,0.0,0.2069,-0.069,1.1,0.494,0.55,0.2534,0.0,0.0,True,monoclinic,2/m,12,33.3387,5.3233,0.2866
Rh10 Zr6,2,0.0,0.0,0.0,0.0,0.0,0.0,0.0,0.0,0.0,1.0,3.375,0.95,0.4599,0.2,0.0968,0.0,0.0,True,orthorhombic,mmm,63,16.9452,9.6549,0.647
Cr2 Ge4 Na2 O12,4,0.0,0.1,0.0,0.6,0.0,0.0,0.2,0.0,0.0,0.1,-1.6,2.51,0.919,1.2,0.4285,2.0,0.9,True,monoclinic,2/m,15,11.9837,4.3824,0.8224
Ba2 Co1 O6 U1,4,0.1,0.0,0.2,0.6,0.0,0.0,0.0,0.0,0.1,0.1,0.0,2.55,1.099,1.55,0.6473,7.0,2.3685,True,cubic,m-3m,225,15.0741,7.3543,1.0
Al14 Au6 Ho2,3,0.0,0.0,0.0,0.0,0.0,0.0909,0.0,0.0,0.0909,0.2727,3.0,1.31,0.4483,0.5,0.142,5.0,1.7628,True,trigonal,-3m,167,18.165,7.8508,1.0
Ge4 Nb8 Te16,3,0.0,0.0,0.0,0.5714,0.0,0.0,0.7143,0.0,0.0,0.2857,-0.2857,0.5,0.2199,0.2,0.0623,1.0,0.3499,True,monoclinic,2/m,14,29.4961,6.1834,0.412
H1 Ta2,2,0.0,0.0,0.0,0.0,0.0,0.0,0.0,0.0,0.0,0.6667,3.0,0.7,0.33,1.2,0.5657,5.0,2.357,True,orthorhombic,222,21,13.1074,15.3251,0.6115
Al24 Ba12 S48,3,0.0,0.0,0.1429,0.0,0.0,0.0,0.0,0.0,0.0,0.0,0.0,1.69,0.6387,1.15,0.3889,3.0,1.0498,True,cubic,m-3,205,24.9474,3.0385,1.0
Er1 Hg2,2,0.0,0.0,0.0,0.0,0.0,0.3333,0.0,0.0,0.3333,0.6667,1.6667,0.76,0.3583,0.25,0.1179,2.0,0.9428,True,hexagonal,6/mmm,191,24.084,13.0642,1.4468
K1 Pr1 S2,3,0.0,0.25,0.0,0.0,0.0,0.25,0.0,0.0,0.25,0.0,0.0,1.76,0.8099,1.2,0.5272,5.0,2.0616,True,trigonal,-3m,166,28.7156,3.5294,1.0
Ca6 O18 Si6,3,0.0,0.0,0.2,0.6,0.0,0.0,0.2,0.0,0.0,0.0,-1.6,2.44,1.0156,1.2,0.4716,2.0,0.8,True,monoclinic,2/m,15,13.6698,2.8221,0.6507
Gd1 Mg1,2,0.0,0.0,0.5,0.0,0.0,0.5,0.0,0.0,0.5,0.0,2.5,0.11,0.055,0.3,0.15,5.0,2.5,True,cubic,m-3m,221,28.0223,5.3793,1.0
Ba8 Ge8 Se20,3,0.0,0.0,0.2222,0.5556,0.0,0.0,0.2222,0.0,0.0,0.0,-1.5556,1.66,0.6619,1.0,0.4058,2.0,0.8315,True,orthorhombic,mmm,62,31.0464,4.8418,0.7318
S4 Ta1 Tl3,3,0.0,0.0,0.0,0.0,0.0,0.0,0.0,0.0,0.0,0.125,0.0,1.08,0.4964,0.9,0.4172,3.0,1.5,True,cubic,-43m,217,30.1318,6.3538,1.0
O3 U1,2,0.25,0.0,0.0,0.75,0.0,0.0,0.0,0.0,0.25,0.0,0.0,2.06,0.892,1.15,0.498,7.0,3.0311,True,orthorhombic,mm2,38,13.8371,8.5813,0.9183
Al1 N1,2,0.0,0.0,0.0,0.0,0.0,0.0,0.0,0.0,0.0,0.0,0.0,1.43,0.715,0.6,0.3,1.0,0.5,True,cubic,-43m,216,10.6585,3.1929,1.0
Li2 Mn4 O24 P6,4,0.0,0.0556,0.0,0.6667,0.0,0.0,0.0,0.0,0.0,0.1111,-1.5556,2.46,0.8279,0.85,0.3111,2.0,0.6781,True,monoclinic,2/m,15,11.8708,3.122,1.0
Ca5 F5 Na10 O20 P5,5,0.0,0.2222,0.1111,0.4444,0.1111,0.0,0.0,0.0,0.0,0.0,-0.8889,3.05,1.2015,1.3,0.5578,2.0,0.6849,True,monoclinic,m,8,13.3039,2.7741,1.0
Er2 Ni2 Si4,3,0.0,0.0,0.0,0.0,0.0,0.25,0.5,0.0,0.25,0.25,-0.75,0.67,0.2873,0.65,0.2658,5.0,2.0616,True,orthorhombic,mmm,63,16.016,7.3127,0.466
K4 O24 Sr2 V8,4,0.0,0.1053,0.0526,0.6316,0.0,0.0,0.0,0.0,0.0,0.2105,-0.0,2.62,1.0573,1.6,0.5754,3.0,1.0553,True,tetragonal,4/mmm,125,17.6473,2.7811,0.4904
Se1 Sr1,2,0.0,0.0,0.5,0.5,0.0,0.0,0.0,0.0,0.0,0.0,0.0,1.6,0.8,0.85,0.425,1.0,0.5,True,cubic,m-3m,225,31.3132,4.4169,1.0
Ba2 Cd4,2,0.0,0.0,0.3333,0.0,0.0,0.0,0.0,0.0,0.0,0.6667,2.0,0.8,0.3771,0.6,0.2828,1.0,0.4714,True,orthorhombic,mmm,74,33.0916,6.0576,0.7994
Al1 Mo2 O8 Tl1,4,0.0,0.0,0.0,0.6667,0.0,0.0,0.0,0.0,0.0,0.1667,-0.3333,1.83,0.7486,1.3,0.4516,4.0,1.441,True,trigonal,-3m,164,17.5753,4.3402,0.7379
Hf6 Ni4 Si6,3,0.0,0.0,0.0,0.0,0.0,0.0,0.375,0.0,0.0,0.625,0.5,0.61,0.2924,0.45,0.1952,3.0,1.317,True,orthorhombic,mmm,63,15.3017,9.999,0.2974
Lu2 O2 S1,3,0.0,0.0,0.0,0.4,0.0,0.4,0.0,0.0,0.4,0.0,0.0,2.17,0.9746,1.15,0.519,4.0,1.833,True,trigonal,-3m,164,15.4142,8.9198,0.5712
N6 Na8 Re2,3,0.0,0.5,0.0,0.0,0.0,0.0,0.0,0.0,0.0,0.125,-0.125,2.11,0.977,1.15,0.5325,4.0,1.2247,True,monoclinic,m,9,16.9603,3.9186,0.6916
Li3 Pd1,2,0.0,0.75,0.0,0.0,0.0,0.0,0.0,0.0,0.0,0.25,1.25,1.22,0.5283,0.05,0.0217,3.0,1.299,True,cubic,m-3m,225,14.771,3.5761,1.0
C4 Fe2 U2,3,0.25,0.0,0.0,0.0,0.0,0.0,0.0,0.0,0.25,0.25,0.0,1.17,0.4986,1.05,0.4547,7.0,2.8614,True,tetragonal,-42m,122,11.7712,11.2112,1.116
Al6 Ca4 O13,3,0.0,0.0,0.1739,0.5652,0.0,0.0,0.0,0.0,0.0,0.0,0.0,2.44,1.0469,1.2,0.4664,2.0,0.7655,True,cubic,-43m,217,15.1961,2.519,1.0
Ag4 Ge2 S6,3,0.0,0.0,0.0,0.0,0.0,0.0,0.1667,0.0,0.0,0.3333,-1.3333,0.65,0.3128,0.6,0.2684,2.0,0.8975,True,orthorhombic,mm2,36,23.0924,4.609,0.9409