formula,numberOfSpecies,fracActinoid,fracAlkali,fracAlkaline,fracChalcogen,fracHalogen,fracLanthanoid,fracMetalloid,fracNobleGas,fracRareEarth,fracTransitionMetal,electronsPerAtom,electronegativityRange,electronegativityStd,radiiRange,radiiStd,rowRange,rowStd,ordered,crystalSystem,pointGroup,spaceGroupNumber,volumePerSite,density,c_a
B2 C2 U2,3,0.3333,0.0,0.0,0.0,0.0,0.0,0.3333,0.0,0.3333,0.0,1.6667,1.17,0.479,1.05,0.4637,7.0,3.2998,True,orthorhombic,mmm,63,11.8791,12.1545,0.5262
O20 Se8 Zn4,3,0.0,0.0,0.0,0.875,0.0,0.0,0.0,0.0,0.0,0.125,-1.5,1.79,0.632,0.75,0.3041,2.0,0.9682,True,orthorhombic,mmm,60,14.1901,4.4369,0.5828
Br18 Nb4 Rb6,3,0.0,0.2143,0.0,0.0,0.6429,0.0,0.0,0.0,0.0,0.1429,0.2857,2.14,0.9052,1.2,0.4811,1.0,0.4792,True,hexagonal,6/mmm,194,34.8747,3.9498,0.4304
Bi3 Dy3 Rh3,3,0.0,0.0,0.0,0.0,0.0,0.3333,0.0,0.0,0.3333,0.3333,3.0,1.06,0.4511,0.4,0.165,3.0,1.2472,True,hexagonal,-6m2,189,22.6549,11.5904,1.9252
C12 F12 H32 N4 O12 S4,6,0.0,0.0,0.0,0.1579,0.1579,0.0,0.0,0.0,0.0,0.0,-1.7895,1.78,0.672,0.75,0.2191,2.0,0.5813,True,monoclinic,2/m,14,11.0262,1.5469,0.7455
Li8 N4 Sr2,3,0.0,0.5714,0.1429,0.0,0.0,0.0,0.0,0.0,0.0,0.0,0.0,2.09,0.9334,1.35,0.4512,3.0,1.0498,True,tetragonal,4/mmm,141,14.1764,2.3995,0.2775
F6 Si1 Tl2,3,0.0,0.0,0.0,0.0,0.6667,0.0,0.1111,0.0,0.0,0.0,-0.8889,2.36,1.0712,1.4,0.5769,4.0,1.633,True,cubic,m-3m,225,18.0361,5.635,1.0
B2 N4 Nd3,3,0.0,0.0,0.0,0.0,0.0,0.3333,0.2222,0.0,0.3333,0.0,0.3333,1.9,0.8328,1.2,0.5398,6.0,2.8284,True,orthorhombic,mmm,71,13.5298,6.9599,0.5452
B6 Cr10,2,0.0,0.0,0.0,0.0,0.0,0.0,0.375,0.0,0.0,0.625,3.0,0.38,0.184,0.55,0.2663,2.0,0.9682,True,tetragonal,4/mmm,140,9.2139,6.5874,0.8645
Nb4 Pt4 Si4,3,0.0,0.0,0.0,0.0,0.0,0.0,0.3333,0.0,0.0,0.6667,1.0,0.68,0.2782,0.35,0.1472,3.0,1.2472,True,orthorhombic,mmm,62,15.4977,11.2889,0.5191
Ag4 O4 Pb2,3,0.0,0.0,0.0,0.4,0.0,0.0,0.0,0.0,0.0,0.4,0.0,1.51,0.6901,1.2,0.5276,4.0,1.6733,True,monoclinic,2/m,15,18.6178,8.1152,0.9575
B13 N2,2,0.0,0.0,0.0,0.0,0.0,0.0,0.8667,0.0,0.0,0.0,2.2,1.0,0.3399,0.2,0.068,0.0,0.0,True,trigonal,-3m,166,7.2026,2.5907,1.0
Rh6 Si10 Tb4,3,0.0,0.0,0.0,0.0,0.0,0.2,0.5,0.0,0.2,0.3,-0.5,2.28,0.8334,0.65,0.2474,5.0,1.9079,True,monoclinic,2/m,15,16.5994,7.6727,0.7011
Ce1,1,0.0,0.0,0.0,0.0,0.0,1.0,0.0,0.0,1.0,0.0,3.0,0.0,0.0,0.0,0.0,0.0,0.0,True,cubic,m-3m,225,26.2958,8.8481,1.0
Li2 Ni4 O24 P6,4,0.0,0.0556,0.0,0.6667,0.0,0.0,0.0,0.0,0.0,0.1111,-1.5556,2.46,0.7691,0.85,0.3007,2.0,0.6781,True,monoclinic,2/m,12,11.5142,3.2789,0.2443
As2 Ni1 O6,3,0.0,0.0,0.0,0.6667,0.0,0.0,0.2222,0.0,0.0,0.1111,-1.7778,1.53,0.6406,0.75,0.2958,2.0,0.9428,True,trigonal,-3m,162,10.2132,5.5015,1.0719
B32 Ba4 O52,3,0.0,0.0,0.0455,0.5909,0.0,0.0,0.3636,0.0,0.0,0.0,-0.0,2.55,0.7859,1.55,0.3254,4.0,0.8332,True,tetragonal,422,91,11.614,2.8063,0.6566
Ba4 Er8 Te16,3,0.0,0.0,0.1429,0.5714,0.0,0.2857,0.5714,0.0,0.2857,0.0,0.0,1.21,0.4952,0.75,0.2692,3.0,1.3093,True,orthorhombic,mmm,62,35.6111,6.5431,0.2751
As8 Ta24,2,0.0,0.0,0.0,0.0,0.0,0.0,0.25,0.0,0.0,0.75,3.0,0.68,0.2944,0.3,0.1299,2.0,0.866,True,monoclinic,2/m,15,17.4299,14.7135,0.3505
Br48 La24 N8,3,0.0,0.0,0.0,0.0,0.6,0.3,0.0,0.0,0.3,0.3,-0.0,1.94,0.8579,1.3,0.4253,6.0,2.0494,True,orthorhombic,mmm,61,29.6645,5.0948,0.6507
Ga4 Zr2,2,0.0,0.0,0.0,0.0,0.0,0.0,0.0,0.0,0.0,0.3333,3.3333,0.48,0.2263,0.25,0.1179,1.0,0.4714,True,orthorhombic,mmm,65,18.1106,7.0499,0.5897
Hf10 Sb6 Zn2,3,0.0,0.0,0.0,0.0,0.0,0.0,0.3333,0.0,0.0,0.6667,1.4444,0.75,0.343,0.2,0.0685,2.0,0.6849,True,hexagonal,6/mmm,193,20.5961,11.8529,1.4863
Cu4 K2 Se8 V2,4,0.0,0.125,0.0,0.5,0.0,0.0,0.0,0.0,0.0,0.375,0.25,1.73,0.5846,1.05,0.3321,0.0,0.0,True,orthorhombic,mm2,40,25.3896,4.3572,0.5723
O6 Sn2 Zn2,3,0.0,0.0,0.0,0.6,0.0,0.0,0.0,0.0,0.0,0.2,-1.6,1.79,0.807,0.85,0.3932,3.0,1.2649,True,trigonal,-3,148,11.9397,6.4565,1.0
Co4 Si4 V4,3,0.0,0.0,0.0,0.0,0.0,0.0,0.3333,0.0,0.0,0.6667,1.0,0.27,0.1228,0.25,0.1179,1.0,0.4714,True,orthorhombic,mmm,62,12.0665,6.3285,0.5198
C6 Mo6,2,0.0,0.0,0.0,0.0,0.0,0.0,0.0,0.0,0.0,0.5,0.0,0.39,0.195,0.75,0.375,3.0,1.5,True,hexagonal,6/mmm,194,10.5131,8.5254,0.1993
Ba8 Ge40 Pd6,3,0.0,0.0,0.1481,0.0,0.0,0.0,0.7407,0.0,0.0,0.1111,-2.4444,1.31,0.4109,0.9,0.3162,2.0,0.7333,True,cubic,m-3m,223,24.0282,5.9417,1.0
Er3 In3 Rh3,3,0.0,0.0,0.0,0.0,0.0,0.3333,0.0,0.0,0.3333,0.3333,3.0,1.04,0.4247,0.4,0.1633,3.0,1.4142,True,hexagonal,-6m2,189,21.1914,10.0556,1.9154
Al4 Mg2 O8,3,0.0,0.0,0.1429,0.5714,0.0,0.0,0.0,0.0,0.0,0.0,0.0,2.13,0.9596,0.9,0.371,1.0,0.4949,True,orthorhombic,mmm,74,9.5653,3.5282,0.9924
Mg1 O6 Pb2 W1,4,0.0,0.0,0.1,0.6,0.0,0.0,0.0,0.0,0.0,0.1,-0.2,2.13,0.7224,1.2,0.5111,4.0,1.7916,True,cubic,m-3m,225,13.197,9.0412,1.0
Mn4 O12 Yb4,3,0.0,0.0,0.0,0.6,0.0,0.2,0.0,0.0,0.2,0.2,-0.2,3.44,1.3946,1.15,0.4903,6.0,2.3324,True,orthorhombic,mmm,62,10.517,8.7148,0.702
Co23 Zr6,2,0.0,0.0,0.0,0.0,0.0,0.0,0.0,0.0,0.0,1.0,2.4138,0.55,0.2228,0.2,0.081,1.0,0.4051,True,cubic,m-3m,225,13.1277,8.2996,1.0
Al3 Cs2 F12 Li1,4,0.0,0.1667,0.0,0.0,0.6667,0.0,0.0,0.0,0.0,0.0,0.0,3.19,1.3144,2.1,0.6818,4.0,1.2534,True,trigonal,-3m,166,14.3733,3.7334,1.0
Cl6 Pu2,2,0.25,0.0,0.0,0.0,0.75,0.0,0.0,0.0,0.25,0.0,0.25,1.88,0.8141,0.75,0.3248,6.0,2.5981,True,hexagonal,6/m,176,25.5355,5.6959,1.7573
Ca2 Ce4 S8,3,0.0,0.0,0.1429,0.0,0.0,0.2857,0.0,0.0,0.2857,0.0,0.0,1.58,0.7432,0.85,0.4127,5.0,2.1946,True,tetragonal,-42m,122,22.3508,4.7609,1.0
Ag2 As2 Na4,3,0.0,0.5,0.0,0.0,0.0,0.0,0.25,0.0,0.0,0.25,0.0,1.25,0.5694,0.65,0.2655,2.0,0.8292,True,orthorhombic,222,20,23.5536,4.0321,0.9847
Ba2 Ce2 O6,3,0.0,0.0,0.2,0.6,0.0,0.2,0.0,0.0,0.2,0.0,-0.2,2.55,1.1951,1.55,0.6924,6.0,2.5298,True,orthorhombic,mmm,74,17.5559,6.1564,0.9992
Ag1 C2 K1,3,0.0,0.25,0.0,0.0,0.0,0.0,0.0,0.0,0.0,0.25,-1.5,1.73,0.7065,1.5,0.6364,3.0,1.299,True,tetragonal,4/mmm,123,25.1241,2.8253,0.8116
Fe1 S2 Tl1,3,0.0,0.0,0.0,0.0,0.0,0.0,0.0,0.0,0.0,0.25,-0.25,0.96,0.4339,0.9,0.37,3.0,1.2247,True,tetragonal,-42m,119,21.3523,6.3062,0.5453
As2 Se2 Sm4,3,0.0,0.0,0.0,0.25,0.0,0.5,0.25,0.0,0.5,0.0,0.25,1.38,0.6117,0.7,0.35,4.0,2.0,True,monoclinic,2/m,12,26.1708,7.2111,1.1514
Be5 Zr1,2,0.0,0.0,0.8333,0.0,0.0,0.0,0.0,0.0,0.0,0.1667,2.3333,0.24,0.0894,0.5,0.1863,3.0,1.118,True,hexagonal,6/mmm,191,10.4095,3.6234,1.3192
Na16 Sn4 Te16,3,0.0,0.4444,0.0,0.4444,0.0,0.0,0.4444,0.0,0.0,0.0,-0.8889,1.17,0.569,0.4,0.1944,2.0,0.9938,True,orthorhombic,222,19,33.2901,3.9964,0.5676
H3 K1 Mg1,3,0.0,0.2,0.2,0.0,0.0,0.0,0.0,0.0,0.0,0.0,0.0,1.38,0.5772,1.95,0.8145,3.0,1.2649,True,cubic,m-3m,221,13.0276,1.6934,1.0
Mn3 Rh1,2,0.0,0.0,0.0,0.0,0.0,0.0,0.0,0.0,0.0,1.0,2.25,0.73,0.3161,0.05,0.0217,1.0,0.433,True,cubic,m-3m,221,11.7184,9.4842,1.0
Bi6 Se6,2,0.0,0.0,0.0,0.5,0.0,0.0,0.0,0.0,0.0,0.0,0.5,0.53,0.265,0.45,0.225,2.0,1.0,True,trigonal,-3m,164,31.6164,7.5615,0.1763
Dy2 Ni4,2,0.0,0.0,0.0,0.0,0.0,0.3333,0.0,0.0,0.3333,0.6667,2.3333,0.69,0.3253,0.4,0.1886,4.0,1.8856,True,cubic,m-3m,227,15.2297,10.1723,1.0
B2 Co3 Dy1,3,0.0,0.0,0.0,0.0,0.0,0.1667,0.3333,0.0,0.1667,0.5,2.5,0.82,0.2791,0.9,0.3162,6.0,2.0,True,hexagonal,6/mmm,191,10.9121,9.1538,1.6495
C120 K2,2,0.0,0.0164,0.0,0.0,0.0,0.0,0.0,0.0,0.0,0.0,-3.918,1.73,0.2197,1.5,0.1905,2.0,0.254,True,orthorhombic,mmm,58,10.8958,1.8981,0.6311
As4 Ni4 S4,3,0.0,0.0,0.0,0.0,0.0,0.0,0.3333,0.0,0.0,0.3333,-1.0,0.67,0.2752,0.35,0.1434,1.0,0.4714,True,cubic,23,198,15.3995,5.9551,1.0
O14 Ru4 Tl4,3,0.0,0.0,0.0,0.6364,0.0,0.0,0.0,0.0,0.0,0.1818,-0.5455,1.82,0.7565,1.3,0.5139,4.0,1.7104,True,cubic,m-3m,227,12.7219,8.5779,1.0
Li4 Ni4 O36 P12,4,0.0,0.0714,0.0,0.6429,0.0,0.0,0.0,0.0,0.0,0.0714,-1.7143,2.46,0.7929,0.85,0.2934,2.0,0.6103,True,triclinic,-1,2,12.3738,2.9001,1.0291
O22 Sr6 Te8,3,0.0,0.0,0.1667,0.8333,0.0,0.0,0.2222,0.0,0.0,0.0,-1.3333,2.49,0.9614,1.4,0.5476,3.0,1.4625,True,triclinic,-1,2,17.5572,4.9877,0.7899
Cd2 Nd4 Ni4,3,0.0,0.0,0.0,0.0,0.0,0.4,0.0,0.0,0.4,0.6,2.4,0.77,0.3506,0.5,0.2245,4.0,1.833,True,tetragonal,4/mmm,127,21.6763,7.9407,0.5109
Al12 Li12 O48 Si12,4,0.0,0.1429,0.0,0.5714,0.0,0.0,0.1429,0.0,0.0,0.0,-1.1429,2.46,0.994,0.85,0.343,1.0,0.4518,True,hexagonal,622,181,13.1858,2.2669,0.9306
Lu4 Mn4 O12,3,0.0,0.0,0.0,0.6,0.0,0.2,0.0,0.0,0.2,0.2,-0.2,2.17,0.9984,1.15,0.4903,4.0,1.6,True,orthorhombic,mmm,62,11.2613,8.1956,0.705
N4 Rh2,2,0.0,0.0,0.0,0.0,0.0,0.0,0.0,0.0,0.0,0.3333,-1.0,0.76,0.3583,0.7,0.33,3.0,1.4142,True,orthorhombic,mmm,58,9.4963,7.6309,0.5764
Li1 Ni1 O2,3,0.0,0.25,0.0,0.5,0.0,0.0,0.0,0.0,0.0,0.25,-0.25,2.46,1.0503,0.85,0.4016,2.0,0.866,True,orthorhombic,mm2,44,11.2263,3.6104,1.0
Cu2 Eu2 F2 Te2,4,0.0,0.0,0.0,0.25,0.25,0.25,0.25,0.0,0.25,0.25,0.25,3.98,1.4089,1.35,0.488,6.0,2.1651,True,tetragonal,4/mmm,129,20.5408,7.3183,0.4586
As8 Cu24,2,0.0,0.0,0.0,0.0,0.0,0.0,0.25,0.0,0.0,0.75,0.75,0.28,0.1212,0.2,0.0866,0.0,0.0,True,cubic,-43m,220,14.0282,7.8587,1.0
Ti1 U2,2,0.6667,0.0,0.0,0.0,0.0,0.0,0.0,0.0,0.6667,0.3333,5.3333,0.16,0.0754,0.35,0.165,5.0,2.357,True,hexagonal,6/mmm,191,18.4431,15.724,1.7027
Cd8 O48 P16,3,0.0,0.0,0.0,0.6667,0.0,0.0,0.0,0.0,0.0,0.1111,-1.7778,1.75,0.6815,0.95,0.3131,3.0,0.9558,True,orthorhombic,mmm,61,13.5587,3.6789,0.5169
Fe6 Ge2 Zr4,3,0.0,0.0,0.0,0.0,0.0,0.0,0.1667,0.0,0.0,0.8333,1.6667,0.68,0.2647,0.3,0.1031,1.0,0.4714,True,hexagonal,6/mmm,194,14.9482,7.8246,0.6127
Al10 C6 N2,3,0.0,0.0,0.0,0.0,0.0,0.0,0.0,0.0,0.0,0.0,0.0,1.43,0.5466,0.6,0.2799,1.0,0.4969,True,hexagonal,6mm,186,11.2941,3.0214,0.1595
Bi2 S1 Te2,3,0.0,0.0,0.0,0.4,0.0,0.0,0.4,0.0,0.0,0.0,0.0,0.56,0.2111,0.6,0.2191,3.0,1.0954,True,trigonal,-3m,166,33.9765,6.8933,1.0
Mn2 Mo2 O12 Te2,4,0.0,0.0,0.0,0.7778,0.0,0.0,0.1111,0.0,0.0,0.2222,-0.8889,1.89,0.7262,0.85,0.3852,3.0,1.2862,True,orthorhombic,222,18,14.5542,4.7472,0.5539
Ge4 Mg4 O12,3,0.0,0.0,0.2,0.6,0.0,0.0,0.2,0.0,0.0,0.0,-1.6,2.13,0.8997,0.9,0.3878,2.0,0.8,True,monoclinic,2/m,15,11.3181,4.2531,0.787
Mo4 O16 Sm2 Tl2,4,0.0,0.0,0.0,0.6667,0.0,0.0833,0.0,0.0,0.0833,0.1667,-0.3333,2.27,0.8194,1.3,0.5158,6.0,2.0138,True,tetragonal,4/mmm,126,16.3041,5.7257,0.6612
Li4 Mn2 O6,3,0.0,0.3333,0.0,0.5,0.0,0.0,0.0,0.0,0.0,0.1667,-0.3333,2.46,1.1508,0.85,0.417,2.0,0.7454,True,monoclinic,2/m,12,8.6833,3.7233,0.9827
O18 S4 Zn6,3,0.0,0.0,0.0,0.6429,0.0,0.0,0.0,0.0,0.0,0.2143,-1.1429,1.79,0.732,0.75,0.3097,2.0,0.8207,True,monoclinic,2/m,11,12.8942,3.7195,0.8364
B6 Ir14 Sn8,3,0.0,0.0,0.0,0.0,0.0,0.0,0.2143,0.0,0.0,0.5,1.0,0.24,0.1066,0.6,0.2242,4.0,1.5518,True,hexagonal,6/m,176,15.5067,14.1719,1.6484
Cd14 Sc2,2,0.0,0.0,0.0,0.0,0.0,0.0,0.0,0.0,0.0,1.0,2.125,0.33,0.1091,0.05,0.0165,1.0,0.3307,True,orthorhombic,mmm,63,22.387,7.7126,0.6692
Ba2 Co8 O14 Y2,4,0.0,0.0,0.0769,0.5385,0.0,0.0,0.0,0.0,0.0,0.3846,-0.0769,2.55,0.9544,1.55,0.5225,4.0,1.35,True,hexagonal,6mm,186,14.2097,5.1595,0.6136
Be12 Cd8 F48 Rb8,4,0.0,0.1053,0.1579,0.0,0.6316,0.0,0.0,0.0,0.0,0.1053,0.0,3.16,1.2687,1.85,0.6085,3.0,1.223,True,cubic,23,198,15.7586,3.6092,1.0
Bi8 Cl28 Se8,3,0.0,0.0,0.0,0.1818,0.6364,0.0,0.0,0.0,0.0,0.0,-0.4545,1.14,0.4502,0.6,0.2257,3.0,1.1355,True,tetragonal,4/m,85,28.8017,4.3191,0.9586
Cu1 O2 Sc1,3,0.0,0.0,0.0,0.5,0.0,0.0,0.0,0.0,0.0,0.5,0.25,2.08,0.9249,1.0,0.4463,2.0,1.0,True,trigonal,-3m,166,13.0461,4.4708,1.0
O12 U1 Y6,3,0.0526,0.0,0.0,0.6316,0.0,0.0,0.0,0.0,0.0526,0.3158,0.0,2.22,1.0604,1.2,0.5755,7.0,1.9209,True,trigonal,-3,148,14.4812,5.8146,1.0
Co14 Tb24,2,0.0,0.0,0.0,0.0,0.0,0.6316,0.0,0.0,0.6316,0.3684,2.6316,1.88,0.9069,0.4,0.193,4.0,1.9295,True,monoclinic,2/m,14,22.329,9.0792,0.736
Ca6 O10 Si2,3,0.0,0.0,0.3333,0.5556,0.0,0.0,0.1111,0.0,0.0,0.0,-0.8889,2.44,1.1309,1.2,0.5479,2.0,0.9162,True,hexagonal,6mm,186,14.0365,3.0011,1.3047
Er4 Na4 O48 P16,4,0.0,0.0556,0.0,0.6667,0.0,0.0556,0.0,0.0,0.0556,0.0,-1.7778,2.51,0.8217,1.2,0.3753,6.0,1.38,True,monoclinic,2/m,14,12.9815,3.5968,0.5493
Cr4 Li12 O32 P8,4,0.0,0.2143,0.0,0.5714,0.0,0.0,0.0,0.0,0.0,0.0714,-1.1429,2.46,1.026,0.85,0.3681,2.0,0.589,True,triclinic,-1,2,9.9601,3.1291,0.773
Cu1 Ge4 Ho2 O12,4,0.0,0.0,0.0,0.6316,0.0,0.1053,0.2105,0.0,0.1053,0.0526,-1.6842,2.21,0.8316,1.15,0.4115,6.0,1.8712,True,triclinic,-1,2,13.5792,5.6377,0.6253
Ca16 Ge4 N16,3,0.0,0.0,0.4444,0.0,0.0,0.0,0.1111,0.0,0.0,0.0,-0.8889,2.04,0.9617,1.15,0.5422,2.0,0.9938,True,monoclinic,2/m,14,15.7658,3.3819,0.5554
Li4 Mn4 O8,3,0.0,0.25,0.0,0.5,0.0,0.0,0.0,0.0,0.0,0.25,-0.25,2.46,1.106,0.85,0.4129,2.0,0.866,True,monoclinic,2/m,15,10.0135,3.8919,0.8796
Au2 Ca1 F12,3,0.0,0.0,0.0667,0.0,0.8,0.0,0.0,0.0,0.0,0.1333,-0.2667,2.98,0.8461,1.3,0.4111,4.0,1.3984,True,tetragonal,-42m,115,16.9547,4.3224,0.7407
H4 Mn2 O16 S4,4,0.0,0.0,0.0,0.6154,0.0,0.0,0.0,0.0,0.0,0.0769,-1.5385,1.89,0.6369,1.15,0.2965,3.0,0.7692,True,monoclinic,2/m,14,12.7068,2.5038,0.6072
F32 K8 Ti8,3,0.0,0.1667,0.0,0.0,0.6667,0.0,0.0,0.0,0.0,0.1667,0.1667,3.16,1.3362,1.7,0.6549,2.0,0.9428,True,orthorhombic,mmm,62,16.3123,2.7648,0.6254
Cr8 Li4 O48 P12,4,0.0,0.0556,0.0,0.6667,0.0,0.0,0.0,0.0,0.0,0.1111,-1.4444,2.46,0.8087,0.85,0.3111,2.0,0.6781,True,monoclinic,m,7,12.3409,2.9591,0.9883
Al4 Ca4 F20,3,0.0,0.0,0.1429,0.0,0.7143,0.0,0.0,0.0,0.0,0.0,-0.0,2.98,1.2194,1.3,0.4858,2.0,0.7284,True,monoclinic,2/m,14,13.4691,2.8541,0.5436
Li12 Mo2 N8,3,0.0,0.5455,0.0,0.0,0.0,0.0,0.0,0.0,0.0,0.0909,-0.1818,2.06,0.9677,0.8,0.3848,3.0,0.8624,True,tetragonal,4/mmm,137,10.0618,2.9048,0.737
Co6 Lu4 Si10,3,0.0,0.0,0.0,0.0,0.0,0.2,0.5,0.0,0.2,0.3,-0.8,0.63,0.2492,0.65,0.2474,3.0,1.1358,True,monoclinic,2/m,15,14.4137,7.6861,0.6985
Fe3 Ga1,2,0.0,0.0,0.0,0.0,0.0,0.0,0.0,0.0,0.0,0.75,2.25,0.02,0.0087,0.1,0.0433,0.0,0.0,True,cubic,m-3m,221,12.262,8.0324,1.0
Fe4 Si4 U4,3,0.3333,0.0,0.0,0.0,0.0,0.0,0.3333,0.0,0.3333,0.3333,1.3333,0.52,0.2304,0.65,0.2656,6.0,2.6247,True,orthorhombic,mmm,62,15.4344,11.5462,0.55
As8 O16 Zn4,3,0.0,0.0,0.0,0.5714,0.0,0.0,0.2857,0.0,0.0,0.1429,-1.7143,1.79,0.7295,0.75,0.3113,2.0,0.9897,True,monoclinic,2/m,14,15.4651,4.2834,0.2555
As4 Cl12,2,0.0,0.0,0.0,0.0,0.75,0.0,0.25,0.0,0.0,0.0,-1.5,0.98,0.4244,0.15,0.065,1.0,0.433,True,orthorhombic,222,19,36.3803,2.0686,0.3804
Ga8 S20 Sn8,3,0.0,0.0,0.0,0.0,0.0,0.0,0.0,0.0,0.0,0.0,-1.3333,0.77,0.3489,0.45,0.1929,2.0,0.8165,True,orthorhombic,mm2,33,24.9041,3.9798,0.5034
C2 Ga2 Ti4,3,0.0,0.0,0.0,0.0,0.0,0.0,0.0,0.0,0.0,0.5,1.75,1.01,0.4133,0.7,0.2915,2.0,0.866,True,hexagonal,6/mmm,194,13.8151,5.3328,0.2289
C4 Ce2 Co2,3,0.0,0.0,0.0,0.0,0.0,0.25,0.0,0.0,0.25,0.25,-0.75,1.43,0.5898,1.15,0.4835,6.0,2.4495,True,monoclinic,m,9,12.6684,7.3099,0.5044
Al4 Li4 Se8,3,0.0,0.25,0.0,0.5,0.0,0.0,0.0,0.0,0.0,0.0,0.0,1.57,0.6659,0.3,0.1225,2.0,0.8292,True,orthorhombic,mm2,33,23.9089,3.331,0.7913
Au2 Na6 S4,3,0.0,0.5,0.0,0.0,0.0,0.0,0.0,0.0,0.0,0.1667,0.3333,1.65,0.8184,0.8,0.361,3.0,1.118,True,trigonal,-3m,167,24.0543,3.7976,1.0
Cu1 O1,2,0.0,0.0,0.0,0.5,0.0,0.0,0.0,0.0,0.0,0.5,0.0,1.54,0.77,0.75,0.375,2.0,1.0,True,cubic,m-3m,225,9.4818,6.9653,1.0
K2 Pr2 Se8 Si2,4,0.0,0.1429,0.0,0.5714,0.0,0.1429,0.1429,0.0,0.1429,0.0,-1.1429,1.73,0.6937,1.1,0.4109,5.0,1.4983,True,monoclinic,2,4,30.4114,4.0869,0.7484
F2 S2 Y2,3,0.0,0.0,0.0,0.0,0.3333,0.0,0.0,0.0,0.0,0.3333,0.0,2.76,1.1268,1.3,0.5354,3.0,1.2472,True,tetragonal,4/mmm,129,16.5354,4.6854,0.5513
Ga2 Na2 O12 Si4,4,0.0,0.1,0.0,0.6,0.0,0.0,0.2,0.0,0.0,0.0,-1.6,2.51,0.9213,1.2,0.3986,2.0,0.6708,True,monoclinic,2/m,15,10.9018,3.73,0.8142
Al10 Ba6,2,0.0,0.0,0.375,0.0,0.0,0.0,0.0,0.0,0.0,0.0,2.625,0.72,0.3486,0.9,0.4357,3.0,1.4524,True,hexagonal,6/mmm,194,29.5372,3.8432,0.4116
Mo6 Sb14,2,0.0,0.0,0.0,0.0,0.0,0.0,0.7,0.0,0.0,0.3,-0.9,0.11,0.0504,0.0,0.0,0.0,0.0,True,cubic,m-3m,229,22.5684,8.3889,1.0
Bi4 Rb2,2,0.0,0.3333,0.0,0.0,0.0,0.0,0.0,0.0,0.0,0.0,2.3333,1.2,0.5657,0.75,0.3536,1.0,0.4714,True,cubic,m-3m,227,38.1596,7.3023,1.0
Li12 Mn4 O32 P8,4,0.0,0.2143,0.0,0.5714,0.0,0.0,0.0,0.0,0.0,0.0714,-1.2143,2.46,1.0336,0.85,0.3681,2.0,0.589,True,triclinic,1,1,10.1951,3.0912,0.7532
Be4 Cs4 F12,3,0.0,0.2,0.2,0.0,0.6,0.0,0.0,0.0,0.0,0.0,0.0,3.19,1.3937,2.1,0.8134,4.0,1.6,True,orthorhombic,mmm,62,19.4467,3.397,0.3768
La4 S8 Sm2,3,0.0,0.0,0.0,0.0,0.0,0.4286,0.0,0.0,0.4286,0.2857,0.1429,1.48,0.7212,0.95,0.4547,5.0,2.4744,True,tetragonal,-42m,122,23.1632,5.6986,1.0
O8 Pd4 Y2,3,0.0,0.0,0.0,0.5714,0.0,0.0,0.0,0.0,0.0,0.4286,-0.1429,2.22,0.8322,1.2,0.4781,3.0,1.4846,True,tetragonal,4/m,88,12.2539,7.0803,0.8933
Na4 S4,2,0.0,0.5,0.0,0.0,0.0,0.0,0.0,0.0,0.0,0.0,-0.5,1.65,0.825,0.8,0.4,0.0,0.0,True,hexagonal,6/mmm,194,22.6878,2.0148,0.439
Li2 Ni4 O32 P10,4,0.0,0.0417,0.0,0.6667,0.0,0.0,0.0,0.0,0.0,0.0833,-1.75,2.46,0.7295,0.85,0.2783,2.0,0.6333,True,monoclinic,m,7,12.912,2.8678,3.7194
Ag1 Sc1 Se2,3,0.0,0.0,0.0,0.5,0.0,0.0,0.0,0.0,0.0,0.5,0.0,1.19,0.4953,0.45,0.225,1.0,0.433,True,trigonal,-3m,164,22.1499,5.824,0.5915
Ir2 Li2 O12 Sr6,4,0.0,0.0909,0.2727,0.5455,0.0,0.0,0.0,0.0,0.0,0.0909,-0.1818,2.49,1.1618,1.4,0.611,4.0,1.5851,True,trigonal,-3m,167,13.9664,6.0314,1.0
In16 Rb16 Sb24,3,0.0,0.2857,0.0,0.0,0.0,0.0,0.4286,0.0,0.0,0.0,-0.1429,1.23,0.519,0.9,0.3907,0.0,0.0,True,monoclinic,2/m,14,38.8576,4.6754,0.4383
Al1 C1 Mn3,3,0.0,0.0,0.0,0.0,0.0,0.0,0.0,0.0,0.0,0.6,1.0,1.0,0.3947,0.7,0.2713,2.0,0.8,True,cubic,m-3m,221,11.0317,6.1356,1.0
Cd1 In1 S2,3,0.0,0.0,0.0,0.0,0.0,0.0,0.0,0.0,0.0,0.25,0.25,0.89,0.4237,0.55,0.275,2.0,1.0,True,trigonal,-3m,164,22.078,5.4784,0.5682
B2 H2 K2 O18 P4 Sc2,6,0.0,0.0667,0.0,0.6,0.0,0.0,0.0667,0.0,0.0,0.0667,-1.2,2.62,0.8702,1.95,0.4718,3.0,0.7888,True,triclinic,-1,2,12.4479,2.6841,0.6302
F6 K2 Re1,3,0.0,0.2222,0.0,0.0,0.6667,0.0,0.0,0.0,0.0,0.1111,0.0,3.16,1.3523,1.7,0.7068,4.0,1.3699,True,trigonal,-3m,164,16.1324,4.3277,1.2725
Na12 O48 Sc8 V12,4,0.0,0.15,0.0,0.6,0.0,0.0,0.0,0.0,0.0,0.25,0.0,2.51,1.066,1.2,0.4963,2.0,0.8529,True,cubic,m-3m,230,13.0572,3.2029,1.0
Bi2 Fe2 O6,3,0.0,0.0,0.0,0.6,0.0,0.0,0.0,0.0,0.0,0.2,-0.2,1.61,0.7446,1.0,0.4454,4.0,1.6,True,trigonal,3m,161,12.9499,8.0226,1.0
Au6 F18,2,0.0,0.0,0.0,0.0,0.75,0.0,0.0,0.0,0.0,0.25,0.0,1.44,0.6235,0.85,0.3681,4.0,1.7321,True,hexagonal,622,178,16.9937,6.204,0.3204
Ce1 O2,2,0.0,0.0,0.0,0.6667,0.0,0.3333,0.0,0.0,0.3333,0.0,-0.3333,2.32,1.0937,1.25,0.5893,6.0,2.8284,True,cubic,m-3m,225,13.6199,6.9948,1.0
Os8 Si12,2,0.0,0.0,0.0,0.0,0.0,0.0,0.6,0.0,0.0,0.4,-0.8,0.3,0.147,0.2,0.098,3.0,1.4697,True,tetragonal,-42m,116,14.2804,10.8075,0.6318
Sb2 V2,2,0.0,0.0,0.0,0.0,0.0,0.0,0.5,0.0,0.0,0.5,1.0,0.42,0.21,0.1,0.05,1.0,0.5,True,hexagonal,6/mmm,194,20.7475,6.9111,0.7405
Li2 Pd1 Sb1,3,0.0,0.5,0.0,0.0,0.0,0.0,0.25,0.0,0.0,0.25,0.25,1.22,0.575,0.05,0.0217,3.0,1.5,True,cubic,-43m,216,16.2981,6.1657,1.0
Ca8 In16 Ir8,3,0.0,0.0,0.25,0.0,0.0,0.0,0.0,0.0,0.0,0.25,2.75,1.2,0.4337,0.45,0.1596,2.0,0.7071,True,orthorhombic,mmm,62,23.0367,8.3243,0.3587
C1 Nd1 Rh3,3,0.0,0.0,0.0,0.0,0.0,0.2,0.0,0.0,0.2,0.6,1.6,1.41,0.4942,1.15,0.3655,6.0,1.8974,True,cubic,m-3m,221,15.2305,10.1389,1.0
C2 H9 K1 Mg1 O10,5,0.0,0.0435,0.0435,0.4348,0.0,0.0,0.0,0.0,0.0,0.0,-1.4783,2.62,0.7581,1.95,0.4415,3.0,0.7353,True,triclinic,-1,2,9.5664,1.9357,0.7515
As6 Sr2,2,0.0,0.0,0.25,0.0,0.0,0.0,0.75,0.0,0.0,0.0,-1.75,1.23,0.5326,0.85,0.3681,1.0,0.433,True,monoclinic,2/m,12,25.881,5.0107,0.9564
Al16 Ca24 N32,3,0.0,0.0,0.3333,0.0,0.0,0.0,0.0,0.0,0.0,0.0,0.0,2.04,0.9198,1.15,0.5039,2.0,0.8749,True,orthorhombic,222,19,13.9197,3.0516,0.3679
Br2 Mo2 Te8,3,0.0,0.0,0.0,0.6667,0.1667,0.0,0.6667,0.0,0.0,0.1667,-0.8333,0.86,0.3168,0.3,0.0986,1.0,0.3727,True,triclinic,-1,2,33.6818,5.6387,0.8245
Nb1 S4 Ti1,3,0.0,0.0,0.0,0.0,0.0,0.0,0.0,0.0,0.0,0.3333,0.1667,1.04,0.4764,0.45,0.2009,2.0,0.7638,True,monoclinic,2/m,12,20.3645,3.6562,0.4836
I6 Pu2,2,0.25,0.0,0.0,0.0,0.75,0.0,0.0,0.0,0.25,0.0,0.25,1.38,0.5976,0.35,0.1516,4.0,1.7321,True,orthorhombic,mmm,63,41.9754,6.1784,0.4241
Cr4 Fe2 S8,3,0.0,0.0,0.0,0.0,0.0,0.0,0.0,0.0,0.0,0.4286,0.0,0.92,0.4304,0.4,0.1979,1.0,0.4949,True,cubic,m-3m,227,17.912,3.8155,1.0
H12 I4 Si4,3,0.0,0.0,0.0,0.0,0.2,0.0,0.2,0.0,0.0,0.0,-1.6,0.76,0.2435,1.15,0.499,4.0,1.6,True,monoclinic,2/m,14,23.2633,2.2558,0.4497
Fe4 Hf2,2,0.0,0.0,0.0,0.0,0.0,0.0,0.0,0.0,0.0,1.0,2.6667,0.53,0.2498,0.15,0.0707,2.0,0.9428,True,cubic,m-3m,227,14.2472,11.2736,1.0
Co10 Ge3 O16,3,0.0,0.0,0.0,0.5517,0.0,0.0,0.1034,0.0,0.0,0.3448,-0.8276,1.56,0.7618,0.75,0.3626,2.0,0.9946,True,trigonal,-3m,166,10.5278,5.7829,1.0