formula,numberOfSpecies,fracActinoid,fracAlkali,fracAlkaline,fracChalcogen,fracHalogen,fracLanthanoid,fracMetalloid,fracNobleGas,fracRareEarth,fracTransitionMetal,electronsPerAtom,electronegativityRange,electronegativityStd,radiiRange,radiiStd,rowRange,rowStd,ordered,crystalSystem,pointGroup,spaceGroupNumber,volumePerSite,density,c_a
C12 I34 Pr24,3,0.0,0.0,0.0,0.0,0.4857,0.3429,0.0,0.0,0.3429,0.0,-0.1429,1.53,0.7137,1.15,0.3902,6.0,2.089,True,monoclinic,2/m,15,36.1431,5.1461,0.616
H12 Li2 N2 O12,4,0.0,0.0714,0.0,0.4286,0.0,0.0,0.0,0.0,0.0,0.0,-1.4286,2.46,0.7493,1.2,0.3113,1.0,0.4949,True,orthorhombic,mmm,63,9.5393,1.5293,0.8394
Ni3 S2,2,0.0,0.0,0.0,0.0,0.0,0.0,0.0,0.0,0.0,0.6,0.4,0.67,0.3282,0.35,0.1715,1.0,0.4899,True,trigonal,32,155,13.3813,5.9617,1.0
Cl4 H18 K1 N6 O8 Ru1,6,0.0,0.0263,0.0,0.2105,0.1053,0.0,0.0,0.0,0.0,0.0263,-1.3684,2.62,0.61,1.95,0.3905,4.0,0.93,True,trigonal,-3m,166,10.8089,2.0706,1.0
Mg2,1,0.0,0.0,1.0,0.0,0.0,0.0,0.0,0.0,0.0,0.0,2.0,0.0,0.0,0.0,0.0,0.0,0.0,True,hexagonal,6/mmm,194,23.0408,1.7516,0.6065
P1 Pt1 Tm1,3,0.0,0.0,0.0,0.0,0.0,0.3333,0.0,0.0,0.3333,0.3333,0.6667,1.03,0.4658,0.75,0.3064,5.0,2.0548,True,hexagonal,-6m2,187,18.6514,11.7221,1.0794
Ba7 F3 K3 O27 Ti10,5,0.0,0.06,0.14,0.54,0.06,0.0,0.0,0.0,0.0,0.2,0.0,3.16,1.1485,1.7,0.6328,4.0,1.4538,True,tetragonal,4mm,99,13.0257,5.2172,0.0977
Hf4 Pt4 Si4,3,0.0,0.0,0.0,0.0,0.0,0.0,0.3333,0.0,0.0,0.6667,0.6667,0.98,0.4034,0.45,0.1841,3.0,1.4142,True,orthorhombic,mmm,62,16.2753,13.6602,0.5158
Fe12 N4 W12,3,0.0,0.0,0.0,0.0,0.0,0.0,0.0,0.0,0.0,0.8571,2.1429,1.21,0.4118,0.75,0.2548,4.0,1.3997,True,cubic,m-3m,227,12.0588,14.4208,1.0
Ga1 Nb4 Se8,3,0.0,0.0,0.0,0.6154,0.0,0.0,0.0,0.0,0.0,0.3077,0.5385,0.95,0.4448,0.3,0.1365,1.0,0.4615,True,cubic,-43m,216,22.616,6.0604,1.0
B2 C6 Lu6,3,0.0,0.0,0.0,0.0,0.0,0.4286,0.1429,0.0,0.4286,0.0,0.0,1.28,0.5943,1.05,0.5035,4.0,1.9795,True,orthorhombic,mmm,63,14.0281,9.6684,0.2251
Ce1 Ir2 Si2,3,0.0,0.0,0.0,0.0,0.0,0.2,0.4,0.0,0.2,0.4,0.2,1.08,0.3955,0.75,0.2739,5.0,1.9391,True,tetragonal,4/mmm,139,17.0315,11.3238,0.7028
As6 Ba2,2,0.0,0.0,0.25,0.0,0.0,0.0,0.75,0.0,0.0,0.0,-1.75,1.29,0.5586,1.0,0.433,2.0,0.866,True,monoclinic,2/m,12,28.6561,5.2455,0.9441
In3 Pt3 Sc3,3,0.0,0.0,0.0,0.0,0.0,0.0,0.0,0.0,0.0,0.6667,2.6667,0.92,0.3761,0.25,0.108,2.0,0.8165,True,hexagonal,-6m2,189,19.7901,9.9251,2.1713
Cl8 Zn4,2,0.0,0.0,0.0,0.0,0.6667,0.0,0.0,0.0,0.0,0.3333,0.0,1.51,0.7118,0.35,0.165,1.0,0.4714,True,orthorhombic,mm2,33,28.2026,2.6754,0.7854
Co4 Ho2,2,0.0,0.0,0.0,0.0,0.0,0.3333,0.0,0.0,0.3333,0.6667,2.3333,0.65,0.3064,0.4,0.1886,4.0,1.8856,True,cubic,m-3m,227,15.206,10.2941,1.0
Ga8 K8 S16,3,0.0,0.25,0.0,0.0,0.0,0.0,0.0,0.0,0.0,0.0,0.0,1.76,0.7229,1.2,0.4918,1.0,0.5,True,monoclinic,m,9,25.8402,2.7785,0.4978
B2 C1 La1 Pt2,4,0.0,0.0,0.0,0.0,0.0,0.1667,0.3333,0.0,0.1667,0.5,1.5,1.45,0.458,1.25,0.4279,6.0,2.4267,True,tetragonal,4/mmm,139,13.6651,11.3964,0.6436
Ag8 Mn2 S12 Sb4,4,0.0,0.0,0.0,0.0,0.0,0.0,0.1538,0.0,0.0,0.3846,-0.9231,1.03,0.3531,0.6,0.2706,2.0,0.9608,True,monoclinic,2/m,14,22.1551,5.3176,0.6302
Bi1 F6 Li1,3,0.0,0.125,0.0,0.0,0.75,0.0,0.0,0.0,0.0,0.0,-0.25,3.0,1.1049,1.1,0.4454,4.0,1.3229,True,trigonal,-3,148,14.2763,4.7967,1.0
Hg2 O8 W2,3,0.0,0.0,0.0,0.6667,0.0,0.0,0.0,0.0,0.0,0.3333,-0.5,1.44,0.603,0.9,0.3913,4.0,1.8856,True,monoclinic,2/m,15,14.5212,8.5465,0.8009
Ge2 K4 O30 Si12,4,0.0,0.0833,0.0,0.625,0.0,0.0,0.2917,0.0,0.0,0.0,-2.3333,2.62,0.9004,1.6,0.4604,2.0,0.7071,True,monoclinic,m,9,13.9313,2.7779,0.4878
Li2 O22 P6 V4,4,0.0,0.0588,0.0,0.6471,0.0,0.0,0.0,0.0,0.0,0.1176,-1.1765,2.46,0.8263,0.85,0.3055,2.0,0.691,True,monoclinic,2,5,12.0937,3.0509,0.8164
C3 Nb4,2,0.0,0.0,0.0,0.0,0.0,0.0,0.0,0.0,0.0,0.5714,1.1429,0.95,0.4701,0.75,0.3712,3.0,1.4846,True,cubic,m-3m,221,12.7658,7.5753,1.0
F7 K3 Zn2,3,0.0,0.25,0.0,0.0,0.5833,0.0,0.0,0.0,0.0,0.1667,-0.0,3.16,1.4187,1.7,0.7224,2.0,0.986,True,tetragonal,4/mmm,139,15.3442,3.4369,0.3723
Cl6 Cs2 Pt1,3,0.0,0.2222,0.0,0.0,0.6667,0.0,0.0,0.0,0.0,0.1111,-0.2222,2.37,0.9718,1.6,0.6534,3.0,1.4142,True,cubic,m-3m,225,33.2847,3.734,1.0
Be8 Ca4 O32 P8,4,0.0,0.0,0.2308,0.6154,0.0,0.0,0.0,0.0,0.0,0.0,-1.2308,2.44,0.8891,1.2,0.3417,2.0,0.6057,True,monoclinic,2/m,14,11.3156,2.8,0.887
Ni1 P4 Si3,3,0.0,0.0,0.0,0.0,0.0,0.0,0.375,0.0,0.0,0.125,-2.75,0.29,0.1438,0.35,0.1116,1.0,0.3307,True,tetragonal,-42m,121,17.6492,3.1383,0.8153
B6 Gd6 O18,3,0.0,0.0,0.0,0.6,0.0,0.2,0.2,0.0,0.2,0.0,0.0,2.24,0.9303,1.2,0.4652,6.0,2.4,True,trigonal,32,155,11.5748,6.1992,1.0
Be2,1,0.0,0.0,1.0,0.0,0.0,0.0,0.0,0.0,0.0,0.0,2.0,0.0,0.0,0.0,0.0,0.0,0.0,True,hexagonal,6/mmm,194,7.9398,1.8848,0.6463
Na4 O16 Si4 Y4,4,0.0,0.1429,0.0,0.5714,0.0,0.0,0.1429,0.0,0.0,0.1429,-1.1429,2.51,1.068,1.2,0.5249,3.0,1.0302,True,orthorhombic,mm2,33,13.564,3.5674,0.4605
As2 H4 Mn2 O10,4,0.0,0.0,0.0,0.5556,0.0,0.0,0.1111,0.0,0.0,0.1111,-1.4444,1.89,0.7236,1.15,0.356,3.0,1.0304,True,monoclinic,2/m,15,11.2701,3.4686,0.7024
Al14 Mg13,2,0.0,0.0,0.4815,0.0,0.0,0.0,0.0,0.0,0.0,0.0,2.5185,0.3,0.1499,0.25,0.1249,0.0,0.0,True,cubic,m-3m,229,19.6365,2.1727,1.0
Ba12 P16 Sn8,3,0.0,0.0,0.3333,0.0,0.0,0.0,0.0,0.0,0.0,0.0,-1.5556,1.3,0.5834,1.15,0.5022,3.0,1.3426,True,monoclinic,2/m,14,31.8919,4.4738,0.4079
Fe2 O5 Rb6,3,0.0,0.4615,0.0,0.3846,0.0,0.0,0.0,0.0,0.0,0.1538,0.0,2.62,1.2018,1.75,0.8035,3.0,1.3803,True,monoclinic,m,8,23.7332,3.7916,0.9929
Pb4 Pt2,2,0.0,0.0,0.0,0.0,0.0,0.0,0.0,0.0,0.0,0.3333,2.0,0.05,0.0236,0.45,0.2121,0.0,0.0,True,tetragonal,4/mmm,140,24.5044,13.7672,1.0
P32 Re8,2,0.0,0.0,0.0,0.0,0.0,0.0,0.0,0.0,0.0,0.2,-1.6,0.29,0.116,0.35,0.14,3.0,1.2,True,orthorhombic,mmm,61,15.9308,6.4647,0.5732
Cu2 P4 Y2,3,0.0,0.0,0.0,0.0,0.0,0.0,0.0,0.0,0.0,0.5,-0.25,0.97,0.3963,0.8,0.3286,2.0,0.8292,True,tetragonal,4/mmm,129,16.9661,5.246,0.3814
Co4 Sm10,2,0.0,0.0,0.0,0.0,0.0,0.7143,0.0,0.0,0.7143,0.2857,2.7143,0.71,0.3207,0.5,0.2259,4.0,1.807,True,monoclinic,2/m,15,26.3411,7.8319,0.7282
As2 Cu3 O8,3,0.0,0.0,0.0,0.6154,0.0,0.0,0.1538,0.0,0.0,0.2308,-1.2308,1.54,0.6999,0.75,0.3316,2.0,0.973,True,triclinic,-1,2,12.4703,4.7986,0.7885
Ca12 Ga8 Pd8,3,0.0,0.0,0.4286,0.0,0.0,0.0,0.0,0.0,0.0,0.2857,2.2857,1.2,0.5187,0.5,0.2259,1.0,0.4518,True,orthorhombic,mmm,57,23.1786,4.836,0.4169
F40 Tl8 U8,3,0.1429,0.0,0.0,0.0,0.7143,0.0,0.0,0.0,0.1429,0.0,0.2857,2.6,1.1222,1.4,0.5999,7.0,2.6108,True,monoclinic,2/m,14,17.0937,7.4579,0.5943
Cs4 S6 Ti2,3,0.0,0.3333,0.0,0.0,0.0,0.0,0.0,0.0,0.0,0.1667,-0.0,1.79,0.8096,1.6,0.7211,3.0,1.3437,True,orthorhombic,mm2,36,32.1314,3.5303,0.8378
Au1 Cr1 Te4,3,0.0,0.0,0.0,0.6667,0.0,0.0,0.6667,0.0,0.0,0.3333,-0.3333,0.88,0.254,0.05,0.0186,2.0,0.5774,True,monoclinic,2/m,10,28.6186,7.3434,0.5383
Cd2 Eu1 P2,3,0.0,0.0,0.0,0.0,0.0,0.2,0.0,0.0,0.2,0.4,0.0,2.19,0.8076,0.85,0.3367,5.0,1.833,True,trigonal,-3m,164,23.5065,6.1986,0.6097
Ba2 Pd4 S8,3,0.0,0.0,0.1429,0.0,0.0,0.0,0.0,0.0,0.0,0.2857,-0.2857,1.69,0.5716,1.15,0.3963,3.0,1.1952,True,monoclinic,2/m,11,23.0438,4.9251,0.9264
Cu3 Nb1 S4,3,0.0,0.0,0.0,0.0,0.0,0.0,0.0,0.0,0.0,0.5,0.375,0.98,0.3885,0.45,0.19,2.0,0.696,True,cubic,-43m,215,21.0808,4.0547,1.0
Pt1 Sc1 Sn1,3,0.0,0.0,0.0,0.0,0.0,0.0,0.0,0.0,0.0,0.6667,0.3333,0.92,0.3813,0.25,0.1027,2.0,0.8165,True,cubic,-43m,216,22.8223,8.7008,1.0
Ce2 Cu4 Mg2,3,0.0,0.0,0.25,0.0,0.0,0.25,0.0,0.0,0.25,0.5,2.25,0.78,0.349,0.5,0.2043,5.0,1.9203,True,hexagonal,6/mmm,194,19.2823,6.2761,0.5469
Na6 P2,2,0.0,0.75,0.0,0.0,0.0,0.0,0.0,0.0,0.0,0.0,0.0,1.26,0.5456,0.8,0.3464,0.0,0.0,True,hexagonal,6/mmm,194,23.6844,1.7518,0.5615
Li2 Nb2 O4,3,0.0,0.25,0.0,0.5,0.0,0.0,0.0,0.0,0.0,0.25,0.5,2.46,1.0971,0.85,0.425,3.0,1.299,True,hexagonal,6/mmm,194,9.903,5.527,0.2773
Bi4 Li6 O24 P6,4,0.0,0.15,0.0,0.6,0.0,0.0,0.0,0.0,0.0,0.0,-1.2,2.46,0.9251,1.0,0.3869,4.0,1.2031,True,triclinic,-1,2,14.296,4.203,1.0
Cs1 S2 Sm1,3,0.0,0.25,0.0,0.0,0.0,0.25,0.0,0.0,0.25,0.0,0.0,1.79,0.8112,1.6,0.6674,5.0,2.1213,True,trigonal,-3m,166,30.8687,4.6719,1.0
O8 P2 Tb2,3,0.0,0.0,0.0,0.6667,0.0,0.1667,0.0,0.0,0.1667,0.0,-1.3333,3.44,1.2735,1.15,0.4247,6.0,2.1922,True,tetragonal,4/mmm,141,12.4,5.6667,1.0
Cd4 Na4 Sb4,3,0.0,0.3333,0.0,0.0,0.0,0.0,0.3333,0.0,0.0,0.3333,-0.0,1.12,0.4669,0.35,0.1472,2.0,0.9428,True,orthorhombic,mmm,62,27.8514,5.1108,0.5551
Na8 O28 P8 Zn4,4,0.0,0.1667,0.0,0.5833,0.0,0.0,0.0,0.0,0.0,0.0833,-1.3333,2.51,0.9877,1.2,0.453,2.0,0.6455,True,tetragonal,4/mmm,136,13.3225,2.9637,0.7518
Mn2 O6 Ti2,3,0.0,0.0,0.0,0.6,0.0,0.0,0.0,0.0,0.0,0.4,0.0,1.9,0.9284,0.8,0.3919,2.0,0.9798,True,trigonal,3m,161,11.1673,4.4848,1.0
Nd2 O3,2,0.0,0.0,0.0,0.6,0.0,0.4,0.0,0.0,0.4,0.0,0.0,2.3,1.1268,1.25,0.6124,6.0,2.9394,True,trigonal,-3m,164,15.7204,7.1085,0.6337
Ca12 Hf4 O36 Si8,4,0.0,0.0,0.2,0.6,0.0,0.0,0.1333,0.0,0.0,0.0667,-1.0667,2.44,1.0552,1.2,0.4946,4.0,1.1662,True,monoclinic,2/m,14,13.3367,4.1411,0.7063
Al8 O14 Sr2,3,0.0,0.0,0.0833,0.5833,0.0,0.0,0.0,0.0,0.0,0.0,-0.0,2.49,0.9822,1.4,0.4394,3.0,0.862,True,monoclinic,2/m,15,13.4786,3.1574,0.698
B32 Hg8 O56,3,0.0,0.0,0.0,0.5833,0.0,0.0,0.3333,0.0,0.0,0.0833,-0.0833,1.44,0.6942,0.9,0.2515,4.0,1.1055,True,orthorhombic,mmm,61,11.4973,4.2827,0.5949
F28 K4 Pd4 Zr4,4,0.0,0.1,0.0,0.0,0.7,0.0,0.0,0.0,0.0,0.2,0.0,3.16,1.2007,1.7,0.5891,3.0,1.249,True,orthorhombic,mmm,52,15.4223,3.9809,0.5627
Al2 Ca1 Si2,3,0.0,0.0,0.2,0.0,0.0,0.0,0.4,0.0,0.0,0.0,0.0,0.9,0.3287,0.7,0.2588,1.0,0.4,True,trigonal,-3m,164,21.2546,2.3471,0.5847
Ba6 F24 In4,3,0.0,0.0,0.1765,0.0,0.7059,0.0,0.0,0.0,0.0,0.0,-0.0,3.09,1.268,1.65,0.6619,4.0,1.6617,True,tetragonal,4/mmm,127,15.9397,5.3289,0.5882
Bi4 Nb4 O18 Sr2,4,0.0,0.0,0.0714,0.6429,0.0,0.0,0.0,0.0,0.0,0.1429,-0.0,2.49,0.8946,1.4,0.5034,4.0,1.6552,True,orthorhombic,mm2,36,14.5743,6.7986,0.434
Ba1 La1 O6 Ru1 Zn1,5,0.0,0.0,0.1,0.6,0.0,0.1,0.0,0.0,0.1,0.3,-0.2,2.55,1.0221,1.55,0.5818,6.0,2.0616,True,triclinic,1,1,13.2992,6.7263,1.0018
Ba1 Fe2 O5 Y1,4,0.0,0.0,0.1111,0.5556,0.0,0.0,0.0,0.0,0.0,0.3333,-0.1111,2.55,1.0286,1.55,0.5793,4.0,1.4741,True,tetragonal,4/mmm,123,13.4197,5.7459,0.5233
As4 U2,2,0.3333,0.0,0.0,0.0,0.0,0.0,0.6667,0.0,0.3333,0.0,0.0,0.8,0.3771,0.6,0.2828,5.0,2.357,True,tetragonal,4/mmm,129,21.1947,10.1295,0.4895
La4 Na12 O68 Si24 Sr4 Zn4,6,0.0,0.1034,0.0345,0.5862,0.0,0.0345,0.2069,0.0,0.0345,0.069,-1.6552,2.51,1.0025,1.4,0.4788,6.0,1.2347,True,orthorhombic,mmm,54,13.2706,3.4579,0.2638
Cu2 Ge1 Se3,3,0.0,0.0,0.0,0.5,0.0,0.0,0.1667,0.0,0.0,0.3333,-1.0,0.65,0.3089,0.2,0.0898,0.0,0.0,True,orthorhombic,mm2,44,22.2687,5.4262,0.5897
Au2 Ga2 O4,3,0.0,0.0,0.0,0.5,0.0,0.0,0.0,0.0,0.0,0.25,0.5,1.63,0.6831,0.75,0.3629,4.0,1.6583,True,hexagonal,6/mmm,194,12.5747,9.8607,0.2443
Mn2 O8 P2,3,0.0,0.0,0.0,0.6667,0.0,0.0,0.0,0.0,0.0,0.1667,-1.5,1.89,0.7628,0.8,0.3055,2.0,0.7638,True,orthorhombic,mmm,63,11.3571,3.6531,0.7208
As5 Cu4 U2,3,0.1818,0.0,0.0,0.0,0.0,0.0,0.4545,0.0,0.1818,0.3636,0.4545,0.8,0.2894,0.6,0.2167,5.0,1.9285,True,tetragonal,4/mmm,139,17.6033,9.4747,0.32
O1 Pr1,2,0.0,0.0,0.0,0.5,0.0,0.5,0.0,0.0,0.5,0.0,0.5,2.31,1.155,1.25,0.625,6.0,3.0,True,cubic,m-3m,225,16.6038,7.8461,1.0
Ca4 S12 Zr4,3,0.0,0.0,0.2,0.0,0.0,0.0,0.0,0.0,0.0,0.2,0.0,1.58,0.701,0.8,0.34,2.0,0.8,True,orthorhombic,mmm,62,22.5398,3.352,0.6818
Ca6 Li6 O24 P6,4,0.0,0.1429,0.1429,0.5714,0.0,0.0,0.0,0.0,0.0,0.0,-1.1429,2.46,1.08,1.2,0.4575,2.0,0.7284,True,trigonal,3m,159,12.1844,2.7644,0.7627
Nd4 S8 Sr2,3,0.0,0.0,0.1429,0.0,0.0,0.2857,0.0,0.0,0.2857,0.0,0.0,1.63,0.7463,1.0,0.4478,5.0,2.1853,True,tetragonal,-42m,122,23.5319,5.0844,1.0
Pd3 Pr3 Zn3,3,0.0,0.0,0.0,0.0,0.0,0.3333,0.0,0.0,0.3333,0.6667,2.3333,1.07,0.4369,0.5,0.2248,4.0,1.6997,True,hexagonal,-6m2,189,21.7267,7.9673,1.8618
B4 H4 Li4,3,0.0,0.3333,0.0,0.0,0.0,0.0,0.3333,0.0,0.0,0.0,1.0,1.22,0.5414,1.2,0.4899,1.0,0.4714,True,orthorhombic,mmm,62,9.8317,1.0562,0.476
I1 O3 Tl1,3,0.0,0.0,0.0,0.6,0.2,0.0,0.0,0.0,0.0,0.0,-1.2,1.82,0.7168,1.3,0.5381,4.0,1.7436,True,trigonal,3m,160,19.2791,6.5337,1.0
Er10 Ge6,2,0.0,0.0,0.0,0.0,0.0,0.625,0.375,0.0,0.625,0.0,0.375,0.77,0.3728,0.5,0.2421,4.0,1.9365,True,hexagonal,6/mmm,193,24.3602,8.9827,1.3289
H2 Pu1,2,0.3333,0.0,0.0,0.0,0.0,0.0,0.0,0.0,0.3333,0.0,0.6667,0.92,0.4337,1.5,0.7071,8.0,3.7712,True,cubic,m-3m,225,12.8122,10.6283,1.0
In8 O20 V4,3,0.0,0.0,0.0,0.625,0.0,0.0,0.0,0.0,0.0,0.125,0.125,1.81,0.829,0.95,0.4315,3.0,1.3229,True,orthorhombic,mmm,62,12.246,6.1116,0.2382
Si8 Sr4,2,0.0,0.0,0.3333,0.0,0.0,0.0,0.6667,0.0,0.0,0.0,-2.0,0.95,0.4478,0.9,0.4243,2.0,0.9428,True,cubic,432,213,23.5675,3.3771,1.0
Ba4 Cu4 Ho8 O20,4,0.0,0.0,0.1111,0.5556,0.0,0.2222,0.0,0.0,0.2222,0.1111,-0.0,2.55,1.085,1.55,0.6017,6.0,2.4944,True,orthorhombic,mmm,62,13.911,8.1002,0.4655
Na4 O14 Te4,3,0.0,0.1818,0.0,0.8182,0.0,0.0,0.1818,0.0,0.0,0.0,-1.4545,2.51,0.9909,1.2,0.4959,3.0,1.1355,True,orthorhombic,mmm,74,13.0196,4.7906,0.9991
Li2 N4 U2,3,0.25,0.25,0.0,0.0,0.0,0.0,0.0,0.0,0.25,0.0,0.25,2.06,0.9407,1.1,0.4867,7.0,3.0311,True,tetragonal,4/mmm,141,13.2453,8.5559,0.6875
Ca4 O1 P2,3,0.0,0.0,0.5714,0.1429,0.0,0.0,0.0,0.0,0.0,0.0,0.0,2.44,0.8837,1.2,0.4781,2.0,0.7284,True,tetragonal,4/mmm,139,21.9565,2.5742,0.5506
B2 C1 Ir2 La1,4,0.0,0.0,0.0,0.0,0.0,0.1667,0.3333,0.0,0.1667,0.5,1.8333,1.45,0.4459,1.25,0.4279,6.0,2.4267,True,tetragonal,4/mmm,139,13.2826,11.6051,0.6562
Ca4 Pb4 Sr4,3,0.0,0.0,0.6667,0.0,0.0,0.0,0.0,0.0,0.0,0.0,2.0,1.38,0.6391,0.2,0.0943,2.0,0.8165,True,orthorhombic,mmm,62,36.4384,5.0872,0.5346
Nd1 S2 Tl1,3,0.0,0.0,0.0,0.0,0.0,0.25,0.0,0.0,0.25,0.0,0.0,1.44,0.6235,0.9,0.4379,5.0,2.1213,True,trigonal,-3m,166,28.4926,6.0138,1.0
Cl8 Pa2,2,0.2,0.0,0.0,0.0,0.8,0.0,0.0,0.0,0.2,0.0,0.2,1.66,0.664,0.8,0.32,6.0,2.4,True,tetragonal,4/mmm,141,27.5855,4.4888,1.0
Cl6 Rb2 Zr1,3,0.0,0.2222,0.0,0.0,0.6667,0.0,0.0,0.0,0.0,0.1111,0.0,2.34,1.0323,1.35,0.5552,2.0,0.9428,True,cubic,m-3m,225,31.6804,2.7657,1.0
P8 Sc12,2,0.0,0.0,0.0,0.0,0.0,0.0,0.0,0.0,0.0,0.6,0.6,0.83,0.4066,0.6,0.2939,1.0,0.4899,True,orthorhombic,mmm,62,19.0531,3.4306,0.3699
Al2 B2 H6 Na2 O20 P4,6,0.0,0.0556,0.0,0.5556,0.0,0.0,0.0556,0.0,0.0,0.0,-1.2222,2.51,0.7958,1.55,0.3668,2.0,0.6211,True,monoclinic,2/m,15,9.6296,2.7375,0.7275
Ga4 Yb2,2,0.0,0.0,0.0,0.0,0.0,0.3333,0.0,0.0,0.3333,0.0,3.0,1.81,0.8532,0.45,0.2121,4.0,1.8856,True,hexagonal,6/mmm,194,20.6267,8.3855,0.6212
Cd6 O10 Si2,3,0.0,0.0,0.0,0.5556,0.0,0.0,0.1111,0.0,0.0,0.3333,-0.8889,1.75,0.8457,0.95,0.436,3.0,1.3699,True,tetragonal,4/mmm,129,13.5243,6.0752,0.7327
Li12 O16 P4,3,0.0,0.375,0.0,0.5,0.0,0.0,0.0,0.0,0.0,0.0,-1.0,2.46,1.1406,0.85,0.3937,1.0,0.3307,True,orthorhombic,mmm,62,10.2471,2.3456,0.4711
Cu2 O10 Se4,3,0.0,0.0,0.0,0.875,0.0,0.0,0.0,0.0,0.0,0.125,-1.5,1.54,0.5677,0.75,0.3041,2.0,0.9682,True,monoclinic,2/m,15,15.5918,4.0133,0.659
Co12 O22 Sr2,3,0.0,0.0,0.0556,0.6111,0.0,0.0,0.0,0.0,0.0,0.3333,-0.4444,2.49,0.8499,1.4,0.4347,3.0,1.0672,True,hexagonal,6/mmm,194,9.8057,5.8067,0.4399
Bi2 O14 P4,3,0.0,0.0,0.0,0.7,0.0,0.0,0.0,0.0,0.0,0.0,-1.7,1.42,0.6004,1.0,0.3156,4.0,1.2,True,triclinic,-1,2,14.5029,4.3844,1.0359
H4 Mg2 O10 Se2,4,0.0,0.0,0.1111,0.6667,0.0,0.0,0.0,0.0,0.0,0.0,-1.3333,2.13,0.7486,1.25,0.3793,3.0,0.8749,True,monoclinic,2/m,15,11.2563,3.0369,0.6963
N22 Si12 Sm6,3,0.0,0.0,0.0,0.0,0.0,0.15,0.3,0.0,0.15,0.0,-2.4,1.87,0.7259,1.2,0.4213,6.0,2.064,True,tetragonal,4mm,100,12.4064,5.1776,0.4859
Ca2 Ni4,2,0.0,0.0,0.3333,0.0,0.0,0.0,0.0,0.0,0.0,0.6667,2.0,0.91,0.429,0.45,0.2121,0.0,0.0,True,cubic,m-3m,227,15.3944,5.6617,1.0
Na12 O12 Sb4,3,0.0,0.4286,0.0,0.4286,0.0,0.0,0.1429,0.0,0.0,0.0,-0.8571,2.51,1.1629,1.2,0.5623,3.0,0.9897,True,cubic,-43m,217,15.9383,3.5531,1.0
Al18 Ca2 Ni2,3,0.0,0.0,0.0909,0.0,0.0,0.0,0.0,0.0,0.0,0.0909,2.8182,0.91,0.203,0.55,0.1579,1.0,0.3857,True,hexagonal,6/mmm,194,17.9035,2.8803,0.9478
Ru2 Sb4,2,0.0,0.0,0.0,0.0,0.0,0.0,0.6667,0.0,0.0,0.3333,-1.0,0.15,0.0707,0.15,0.0707,0.0,0.0,True,orthorhombic,mmm,58,21.8808,8.717,0.4778
Cu20 In4 Th4,3,0.1429,0.0,0.0,0.0,0.0,0.0,0.0,0.0,0.1429,0.7143,2.4286,0.6,0.2071,0.45,0.1613,5.0,1.7261,True,orthorhombic,mmm,62,16.135,9.7709,0.4782
Nb5 Se4,2,0.0,0.0,0.0,0.4444,0.0,0.0,0.0,0.0,0.0,0.5556,1.8889,0.95,0.4721,0.3,0.1491,1.0,0.4969,True,tetragonal,4/m,87,19.2538,7.4781,0.4734
C1 I4,2,0.0,0.0,0.0,0.0,0.8,0.0,0.0,0.0,0.0,0.0,-1.6,0.11,0.044,0.7,0.28,3.0,1.2,True,tetragonal,-42m,121,43.9588,3.9258,0.9806
S1 Ta1,2,0.0,0.0,0.0,0.0,0.0,0.0,0.0,0.0,0.0,0.5,1.5,1.08,0.54,0.45,0.225,3.0,1.5,True,hexagonal,-6m2,187,15.5339,11.3853,0.9845
Ce2 In4 Pd2,3,0.0,0.0,0.0,0.0,0.0,0.25,0.0,0.0,0.25,0.25,2.75,1.08,0.3865,0.45,0.1635,3.0,1.299,True,orthorhombic,mmm,63,23.424,8.439,0.62
Al4 Ba12 Sb12,3,0.0,0.0,0.4286,0.0,0.0,0.0,0.4286,0.0,0.0,0.0,0.0,1.16,0.5392,0.9,0.3769,3.0,0.9897,True,orthorhombic,mmm,64,39.7054,4.805,0.5102
Cl32 O8 Re8,3,0.0,0.0,0.0,0.1667,0.6667,0.0,0.0,0.0,0.0,0.1667,-0.3333,1.54,0.501,0.75,0.2168,4.0,1.2472,True,monoclinic,2/m,14,30.7779,3.0934,0.3354
Bi2 Na2 O4,3,0.0,0.25,0.0,0.5,0.0,0.0,0.0,0.0,0.0,0.0,0.0,2.51,1.0554,1.2,0.5545,4.0,1.6394,True,monoclinic,2/m,15,16.1047,6.8044,0.8719
As2 Ba1 Co2,3,0.0,0.0,0.2,0.0,0.0,0.0,0.4,0.0,0.0,0.4,-0.0,1.29,0.4753,1.0,0.3709,2.0,0.8,True,tetragonal,4/mmm,139,20.1411,6.6787,0.5764
Ho10 Rh6,2,0.0,0.0,0.0,0.0,0.0,0.625,0.0,0.0,0.625,0.375,3.0,1.05,0.5083,0.4,0.1936,3.0,1.4524,True,hexagonal,6/mmm,193,22.9879,10.2337,1.3058
Rh26 Sc114,2,0.0,0.0,0.0,0.0,0.0,0.0,0.0,0.0,0.0,1.0,3.0,0.92,0.3578,0.25,0.0972,1.0,0.3889,True,cubic,m-3,200,21.5196,4.2994,1.0
Pd4 Sb8,2,0.0,0.0,0.0,0.0,0.0,0.0,0.6667,0.0,0.0,0.3333,-1.3333,0.15,0.0707,0.05,0.0236,0.0,0.0,True,cubic,m-3,205,23.576,8.2158,1.0
Ho2 Si2,2,0.0,0.0,0.0,0.0,0.0,0.5,0.5,0.0,0.5,0.0,-0.5,0.67,0.335,0.65,0.325,5.0,2.5,True,orthorhombic,mmm,63,21.3286,7.5136,0.6748
Ag3 As2 K3,3,0.0,0.375,0.0,0.0,0.0,0.0,0.25,0.0,0.0,0.375,0.0,1.36,0.5937,1.05,0.4159,1.0,0.4841,True,trigonal,-3m,166,28.9063,4.2419,1.0
Pd8 Se8,2,0.0,0.0,0.0,0.5,0.0,0.0,0.0,0.0,0.0,0.5,0.0,0.35,0.175,0.25,0.125,1.0,0.5,True,tetragonal,4/m,84,20.5926,7.4743,0.9734
C1 In1 Nd3,3,0.0,0.0,0.0,0.0,0.0,0.6,0.0,0.0,0.6,0.0,1.6,1.41,0.5581,1.15,0.4454,6.0,2.4,True,cubic,m-3m,221,27.072,6.8644,1.0
K4 S6 Ti2,3,0.0,0.3333,0.0,0.0,0.0,0.0,0.0,0.0,0.0,0.1667,-0.0,1.76,0.797,1.2,0.5375,1.0,0.5,True,monoclinic,2/m,15,27.2002,2.2614,0.8986
Ce1 Ge3 Ir1,3,0.0,0.0,0.0,0.0,0.0,0.2,0.6,0.0,0.2,0.2,-1.2,1.08,0.3822,0.6,0.2332,4.0,1.6,True,tetragonal,4mm,107,19.8612,9.201,0.7462
Cu4 F12 Na4,3,0.0,0.2,0.0,0.0,0.6,0.0,0.0,0.0,0.0,0.2,0.0,3.05,1.2935,1.3,0.5455,2.0,0.8,True,triclinic,-1,2,12.2914,3.8781,0.6812
In3 Y1,2,0.0,0.0,0.0,0.0,0.0,0.0,0.0,0.0,0.0,0.25,3.0,0.56,0.2425,0.25,0.1083,0.0,0.0,True,cubic,m-3m,221,25.2124,7.1355,1.0
Cs1 F6 Sb1,3,0.0,0.125,0.0,0.0,0.75,0.0,0.125,0.0,0.0,0.0,-1.0,3.19,1.1524,2.1,0.7202,4.0,1.536,True,trigonal,-3,148,19.8939,3.8465,1.0
Ca1 Ni2 P2,3,0.0,0.0,0.2,0.0,0.0,0.0,0.0,0.0,0.0,0.4,0.0,1.19,0.4383,0.8,0.295,1.0,0.4899,True,tetragonal,4/mmm,139,14.3259,5.0865,0.7195
As2 S4 Sr1,3,0.0,0.0,0.1429,0.0,0.0,0.0,0.2857,0.0,0.0,0.0,-1.7143,1.63,0.5521,1.0,0.3388,2.0,0.7284,True,triclinic,1,1,27.8918,3.1105,1.4636
Al2 Li1 Pt1,3,0.0,0.25,0.0,0.0,0.0,0.0,0.0,0.0,0.0,0.25,2.25,1.3,0.4597,0.2,0.0829,4.0,1.5,True,cubic,m-3m,225,14.119,7.5267,1.0
As6 Na18,2,0.0,0.75,0.0,0.0,0.0,0.0,0.25,0.0,0.0,0.0,0.0,1.25,0.5413,0.65,0.2815,1.0,0.433,True,hexagonal,6mm,185,25.5515,2.3378,0.9761
Al4 Cl16 Eu2,3,0.0,0.0,0.0,0.0,0.7273,0.0909,0.0,0.0,0.0909,0.0,-0.0,3.16,1.0103,0.85,0.249,5.0,1.4374,True,monoclinic,2/m,13,31.1678,2.3711,0.5503
Au1 K1 O2,3,0.0,0.25,0.0,0.5,0.0,0.0,0.0,0.0,0.0,0.25,0.0,2.62,1.0697,1.6,0.6599,4.0,1.6583,True,orthorhombic,mmm,47,17.0998,6.5078,0.524
Ga2 Ge2 Te2,3,0.0,0.0,0.0,0.3333,0.0,0.0,0.6667,0.0,0.0,0.0,-1.0,0.29,0.1212,0.15,0.0624,1.0,0.4714,True,trigonal,-3m,166,29.9509,4.9891,1.0
Be6 Mn8 O24 Se2 Si6,5,0.0,0.0,0.1304,0.5652,0.0,0.0,0.1304,0.0,0.0,0.1739,-1.0435,1.89,0.8726,0.8,0.318,2.0,0.8249,True,cubic,-43m,218,13.0927,3.3196,1.0
Mn6 Ni16 P7,3,0.0,0.0,0.0,0.0,0.0,0.0,0.0,0.0,0.0,0.7586,0.7931,0.64,0.2138,0.4,0.1568,1.0,0.4279,True,cubic,m-3m,225,11.3845,7.4717,1.0
La4 Si4,2,0.0,0.0,0.0,0.0,0.0,0.5,0.5,0.0,0.5,0.5,-0.5,0.8,0.4,0.85,0.425,5.0,2.5,True,orthorhombic,mmm,62,25.6319,5.4092,0.4739
Cs2 Cu6 Dy4 Se10,4,0.0,0.0909,0.0,0.4545,0.0,0.1818,0.0,0.0,0.1818,0.2727,0.2727,1.76,0.619,1.45,0.4245,4.0,1.5641,True,orthorhombic,mmm,63,24.1022,6.5347,0.2375