formula,numberOfSpecies,fracActinoid,fracAlkali,fracAlkaline,fracChalcogen,fracHalogen,fracLanthanoid,fracMetalloid,fracNobleGas,fracRareEarth,fracTransitionMetal,electronsPerAtom,electronegativityRange,electronegativityStd,radiiRange,radiiStd,rowRange,rowStd,ordered,crystalSystem,pointGroup,spaceGroupNumber,volumePerSite,density,c_a
Al3 Cs2 F12 Na1,4,0.0,0.1667,0.0,0.0,0.6667,0.0,0.0,0.0,0.0,0.0,0.0,3.19,1.3188,2.1,0.7016,4.0,1.2472,True,trigonal,-3m,166,15.1852,3.6313,1.0
Cu2 O12 Ta4,3,0.0,0.0,0.0,0.6667,0.0,0.0,0.0,0.0,0.0,0.3333,0.0,1.94,0.8586,0.85,0.3859,4.0,1.663,True,tetragonal,4/mmm,136,11.7512,8.187,0.5227
C2 Ga2 Sc4,3,0.0,0.0,0.0,0.0,0.0,0.0,0.0,0.0,0.0,0.5,1.25,1.19,0.4864,0.9,0.3674,2.0,0.866,True,hexagonal,6/mmm,194,17.4189,4.0907,0.2251
Lu4 Mn4 O14,3,0.0,0.0,0.0,0.6364,0.0,0.1818,0.0,0.0,0.1818,0.1818,-0.3636,2.17,0.9802,1.15,0.4807,4.0,1.5641,True,cubic,m-3m,227,11.02,7.8329,1.0
Hf4 S2,2,0.0,0.0,0.0,0.0,0.0,0.0,0.0,0.0,0.0,0.6667,2.0,1.28,0.6034,0.55,0.2593,3.0,1.4142,True,hexagonal,6/mmm,194,19.5139,11.0353,0.2873
O14 P4 V2,3,0.0,0.0,0.0,0.7,0.0,0.0,0.0,0.0,0.0,0.1,-1.5,1.81,0.6741,0.75,0.2534,2.0,0.6633,True,monoclinic,2/m,15,13.2124,2.8264,0.5198
Ge32 K32,2,0.0,0.5,0.0,0.0,0.0,0.0,0.5,0.0,0.0,0.0,-1.5,1.19,0.595,0.95,0.475,0.0,0.0,True,cubic,-43m,218,33.7367,2.7499,1.0
Al4 K12 Se12,3,0.0,0.4286,0.0,0.4286,0.0,0.0,0.0,0.0,0.0,0.0,0.0,1.73,0.8013,1.05,0.5083,1.0,0.3499,True,monoclinic,2/m,14,32.5401,2.7787,0.6156
H4 O10 Se2 Zn2,4,0.0,0.0,0.0,0.6667,0.0,0.0,0.0,0.0,0.0,0.1111,-1.3333,1.79,0.676,1.1,0.3448,3.0,1.0304,True,monoclinic,2/m,15,11.2919,3.699,0.6984
Cu4 K1 Se3,3,0.0,0.125,0.0,0.375,0.0,0.0,0.0,0.0,0.0,0.5,0.375,1.73,0.5408,1.05,0.323,0.0,0.0,True,tetragonal,4/mmm,123,19.8129,5.5542,0.4062
La1 Rb1 S2,3,0.0,0.25,0.0,0.0,0.0,0.25,0.0,0.0,0.25,0.25,0.0,1.76,0.816,1.35,0.5921,5.0,2.0463,True,trigonal,-3m,166,31.1269,3.8477,1.0
Co4 Yb2,2,0.0,0.0,0.0,0.0,0.0,0.3333,0.0,0.0,0.3333,0.6667,2.3333,1.88,0.8862,0.4,0.1886,4.0,1.8856,True,cubic,m-3m,227,14.9648,10.76,1.0
K4 O32 Pr4 Se8,4,0.0,0.0833,0.0,0.8333,0.0,0.0833,0.0,0.0,0.0833,0.0,-1.3333,2.62,0.9144,1.6,0.5344,6.0,1.7321,True,monoclinic,2/m,14,15.8563,4.0661,0.6666
Ce1 P1,2,0.0,0.0,0.0,0.0,0.0,0.5,0.0,0.0,0.5,0.0,0.0,1.07,0.535,0.85,0.425,5.0,2.5,True,cubic,m-3m,221,21.4989,6.6073,1.0
Br2 H8 P2,3,0.0,0.0,0.0,0.0,0.1667,0.0,0.0,0.0,0.0,0.0,-1.3333,0.77,0.284,0.9,0.3913,3.0,1.2134,True,tetragonal,4/mmm,129,13.5096,2.354,0.7173
Tl2,1,0.0,0.0,0.0,0.0,0.0,0.0,0.0,0.0,0.0,0.0,1.0,0.0,0.0,0.0,0.0,0.0,0.0,True,hexagonal,6/mmm,194,31.2882,10.8471,0.6236
C1 Ta1,2,0.0,0.0,0.0,0.0,0.0,0.0,0.0,0.0,0.0,0.5,0.5,1.05,0.525,0.75,0.375,4.0,2.0,True,cubic,m-3m,225,11.2551,14.2343,1.0
Cu4 Li8 O16 P4,4,0.0,0.25,0.0,0.5,0.0,0.0,0.0,0.0,0.0,0.125,-0.875,2.46,1.0372,0.85,0.3795,2.0,0.696,True,orthorhombic,mmm,62,10.7621,3.325,1.1959
Ga16 K16 Sb24,3,0.0,0.2857,0.0,0.0,0.0,0.0,0.4286,0.0,0.0,0.0,-0.1429,1.23,0.5218,0.9,0.3712,1.0,0.4949,True,monoclinic,2/m,14,33.2479,4.1591,0.4348
Ba2 Mn1 O6 Te1,4,0.0,0.0,0.2,0.7,0.0,0.0,0.1,0.0,0.0,0.1,-0.8,2.55,1.0693,1.55,0.6226,4.0,1.6763,True,cubic,m-3m,225,14.4994,6.3354,1.0
K8 P8,2,0.0,0.5,0.0,0.0,0.0,0.0,0.0,0.0,0.0,0.0,-1.0,1.37,0.685,1.2,0.6,1.0,0.5,True,orthorhombic,222,19,28.8596,2.0159,0.534
Al1 C1 Sc3,3,0.0,0.0,0.0,0.0,0.0,0.0,0.0,0.0,0.0,0.6,1.6,1.19,0.4613,0.9,0.3521,2.0,0.8,True,cubic,m-3m,221,18.3732,3.1426,1.0
Be1 H3 Na1,3,0.0,0.2,0.2,0.0,0.0,0.0,0.0,0.0,0.0,0.0,0.0,1.27,0.5075,1.55,0.6226,2.0,0.8,True,cubic,m-3m,221,7.4713,1.5569,1.0
La1 Pt3,2,0.0,0.0,0.0,0.0,0.0,0.25,0.0,0.0,0.25,1.0,2.25,1.18,0.511,0.6,0.2598,2.0,0.866,True,cubic,m-3m,221,19.0314,15.7962,1.0
Al3 O12 P3,3,0.0,0.0,0.0,0.6667,0.0,0.0,0.0,0.0,0.0,0.0,-1.3333,1.83,0.745,0.65,0.2578,1.0,0.4714,True,trigonal,32,154,13.7255,2.459,0.4528
Ca2 Cl4,2,0.0,0.0,0.3333,0.0,0.6667,0.0,0.0,0.0,0.0,0.0,0.0,2.16,1.0182,0.8,0.3771,1.0,0.4714,True,orthorhombic,mmm,58,28.969,2.1206,0.6468
K8 O6 Sb4,3,0.0,0.4444,0.0,0.3333,0.0,0.0,0.2222,0.0,0.0,0.0,-0.8889,2.62,1.1443,1.6,0.6988,3.0,1.1653,True,hexagonal,6mm,186,28.4705,2.9027,0.4367
Ge1 Li2 Pd1,3,0.0,0.5,0.0,0.0,0.0,0.0,0.25,0.0,0.0,0.25,0.0,1.22,0.5665,0.2,0.082,3.0,1.299,True,cubic,m-3m,225,13.8083,5.8006,1.0
Cr1 Li1 O7 P2,4,0.0,0.0909,0.0,0.6364,0.0,0.0,0.0,0.0,0.0,0.0909,-1.4545,2.46,0.8642,0.85,0.3215,2.0,0.6428,True,monoclinic,2,5,10.7416,3.2728,1.1604
Bi2 Cs2 O4,3,0.0,0.25,0.0,0.5,0.0,0.0,0.0,0.0,0.0,0.0,0.0,2.65,1.1065,2.0,0.8292,4.0,2.0,True,monoclinic,2/m,15,26.0582,5.9564,0.9493
Se2 Ti1,2,0.0,0.0,0.0,0.6667,0.0,0.0,0.0,0.0,0.0,0.3333,0.0,1.01,0.4761,0.25,0.1179,0.0,0.0,True,trigonal,-3m,164,24.2736,4.6926,0.5295
Hg1 N3 O6 Rb1,4,0.0,0.0909,0.0,0.5455,0.0,0.0,0.0,0.0,0.0,0.0909,-1.7273,2.62,0.7922,1.75,0.5366,4.0,1.3667,True,cubic,m-3,200,20.6486,3.1003,1.0
Ho1 S1,2,0.0,0.0,0.0,0.0,0.0,0.5,0.0,0.0,0.5,0.0,0.5,1.35,0.675,0.75,0.375,5.0,2.5,True,cubic,m-3m,225,20.701,7.901,1.0
Be6 Ge6 Mn8 O24 S2,5,0.0,0.0,0.1304,0.5217,0.0,0.0,0.1304,0.0,0.0,0.1739,-1.0435,1.89,0.8613,0.8,0.3313,2.0,0.9141,True,cubic,-43m,218,13.6225,3.6504,1.0
C4 Sn2 Ti6,3,0.0,0.0,0.0,0.0,0.0,0.0,0.0,0.0,0.0,0.5,0.0,1.01,0.4517,0.75,0.3363,3.0,1.118,True,hexagonal,6/mmm,194,13.4043,5.9118,0.1679
Dy4 Ni4 O12,3,0.0,0.0,0.0,0.6,0.0,0.2,0.0,0.0,0.2,0.2,-0.2,2.22,0.9441,1.15,0.4823,6.0,2.3324,True,monoclinic,2/m,14,10.9099,8.1945,0.698
Ni1 Sn1 Th1,3,0.3333,0.0,0.0,0.0,0.0,0.0,0.0,0.0,0.3333,0.3333,0.6667,0.66,0.3,0.45,0.1929,5.0,2.1602,True,cubic,-43m,216,23.7744,9.5326,1.0
Au8 S6 Tl4,3,0.0,0.0,0.0,0.0,0.0,0.0,0.0,0.0,0.0,0.4444,0.8889,0.96,0.39,0.9,0.3287,3.0,1.4142,True,orthorhombic,mmm,59,25.9922,9.1771,0.3914
Cr2 Mo2 O14 V2,4,0.0,0.0,0.0,0.7,0.0,0.0,0.0,0.0,0.0,0.3,-0.2,1.81,0.7557,0.85,0.3673,3.0,1.1,True,triclinic,-1,2,14.8914,3.4665,0.7032
K1 O2 Y1,3,0.0,0.25,0.0,0.5,0.0,0.0,0.0,0.0,0.0,0.25,0.0,2.62,1.2182,1.6,0.7141,3.0,1.299,True,trigonal,-3m,166,16.5341,4.0173,1.0
Eu4 O16 P4,3,0.0,0.0,0.0,0.6667,0.0,0.1667,0.0,0.0,0.1667,0.0,-1.5,3.44,1.2735,1.25,0.4598,6.0,2.1922,True,monoclinic,2/m,14,12.5856,5.4301,0.9225
As4 Bi4 O16,3,0.0,0.0,0.0,0.6667,0.0,0.0,0.1667,0.0,0.0,0.0,-1.3333,1.42,0.6334,1.0,0.3877,4.0,1.5275,True,monoclinic,2/m,14,14.0008,6.877,0.9379
Cu4 Tb2,2,0.0,0.0,0.0,0.0,0.0,0.3333,0.0,0.0,0.3333,0.6667,2.3333,1.9,0.8957,0.4,0.1886,4.0,1.8856,True,orthorhombic,mmm,74,17.9305,8.8293,0.7855
F56 Sb8 Te4,3,0.0,0.0,0.0,0.0588,0.8235,0.0,0.1765,0.0,0.0,0.0,-1.2941,1.93,0.7295,0.95,0.3559,3.0,1.1437,True,monoclinic,2/m,14,16.3018,3.8174,0.5225
F8 Ir2,2,0.0,0.0,0.0,0.0,0.8,0.0,0.0,0.0,0.0,0.2,-0.2,1.78,0.712,0.85,0.34,4.0,1.6,True,orthorhombic,mm2,43,13.7362,6.4847,0.9813
Bi1 Tl1,2,0.0,0.0,0.0,0.0,0.0,0.0,0.0,0.0,0.0,0.0,2.0,0.4,0.2,0.3,0.15,0.0,0.0,True,cubic,m-3m,221,31.8014,10.7921,1.0
B14 W2 Y6,3,0.0,0.0,0.0,0.0,0.0,0.0,0.6364,0.0,0.0,0.3636,3.0909,1.14,0.3935,0.95,0.4197,4.0,1.5851,True,orthorhombic,mmm,63,12.0113,6.6137,0.3656
O10 Pb4 S2,3,0.0,0.0,0.0,0.625,0.0,0.0,0.0,0.0,0.0,0.0,-1.0,1.11,0.5022,1.2,0.5074,4.0,1.691,True,monoclinic,2/m,12,16.5297,6.6109,0.7682
F28 Ho8 K4,3,0.0,0.1,0.0,0.0,0.7,0.2,0.0,0.0,0.2,0.0,0.0,3.16,1.3271,1.7,0.652,6.0,2.3749,True,monoclinic,m,8,14.2799,5.8369,0.7587
Ca12 O4 Si4,3,0.0,0.0,0.6,0.2,0.0,0.0,0.2,0.0,0.0,0.0,-0.0,2.44,0.9521,1.2,0.4915,2.0,0.8,True,orthorhombic,mmm,62,21.1448,2.5808,0.7061
Li1 Ni1 O2,3,0.0,0.25,0.0,0.5,0.0,0.0,0.0,0.0,0.0,0.25,-0.25,2.46,1.0503,0.85,0.4016,2.0,0.866,True,trigonal,-3m,166,8.6955,4.6611,1.0
La4 Ni4 Sn4,3,0.0,0.0,0.0,0.0,0.0,0.3333,0.0,0.0,0.3333,0.6667,0.3333,0.86,0.3942,0.6,0.2625,4.0,1.6997,True,orthorhombic,mmm,62,22.6324,7.7358,0.6065
Pt4 Sr2,2,0.0,0.0,0.3333,0.0,0.0,0.0,0.0,0.0,0.0,0.6667,2.0,1.33,0.627,0.65,0.3064,1.0,0.4714,True,cubic,m-3m,227,20.4894,12.9072,1.0
Co3 Ta1,2,0.0,0.0,0.0,0.0,0.0,0.0,0.0,0.0,0.0,1.0,2.75,0.38,0.1645,0.1,0.0433,2.0,0.866,True,cubic,m-3m,221,12.0374,12.3377,1.0
Bi4 Cr4 O12,3,0.0,0.0,0.0,0.6,0.0,0.0,0.0,0.0,0.0,0.2,0.0,1.78,0.7921,1.0,0.4454,4.0,1.6,True,monoclinic,2/m,15,12.4349,8.252,0.5704
Ca4 Pt4 Si4,3,0.0,0.0,0.3333,0.0,0.0,0.0,0.3333,0.0,0.0,0.3333,0.0,1.28,0.5367,0.7,0.2896,3.0,1.2472,True,monoclinic,2/m,14,20.1102,7.2456,0.8082
Cd2 Cs2 Lu2 Te6,4,0.0,0.1667,0.0,0.5,0.0,0.1667,0.5,0.0,0.1667,0.1667,-0.0,1.31,0.4982,1.2,0.4288,1.0,0.4714,True,orthorhombic,mmm,63,38.3684,5.7928,0.3816
Al6 Ge6 Li6 O24,4,0.0,0.1429,0.0,0.5714,0.0,0.0,0.1429,0.0,0.0,0.0,-1.1429,2.46,0.9835,0.85,0.36,2.0,0.7284,True,trigonal,-3,148,12.4663,3.2456,1.0
Ge1 Te1,2,0.0,0.0,0.0,0.5,0.0,0.0,1.0,0.0,0.0,0.0,-3.0,0.09,0.045,0.15,0.075,1.0,0.5,True,trigonal,3m,160,28.1325,5.9097,1.0
Ba8 C8 F12 Gd4 O24,5,0.0,0.0,0.1429,0.4286,0.2143,0.0714,0.0,0.0,0.0714,0.0,-1.1429,3.09,1.0844,1.65,0.5997,6.0,1.964,True,orthorhombic,mmm,60,14.6474,4.9308,0.5939
Ag2 Al2 Se4,3,0.0,0.0,0.0,0.5,0.0,0.0,0.0,0.0,0.0,0.25,0.0,0.94,0.4061,0.45,0.185,2.0,0.7071,True,tetragonal,-42m,122,25.3678,4.7911,0.862
Ir4 Sb12,2,0.0,0.0,0.0,0.0,0.0,0.0,0.75,0.0,0.0,0.25,-1.5,0.15,0.065,0.1,0.0433,1.0,0.433,True,cubic,m-3,204,25.9112,8.9319,1.0
K2 Nd2 O24 P8,4,0.0,0.0556,0.0,0.6667,0.0,0.0556,0.0,0.0,0.0556,0.0,-1.7778,2.62,0.8478,1.6,0.4511,6.0,1.4142,True,monoclinic,2,4,14.3392,3.2118,0.8631
Ca2 O10 Rb1 Ta3,4,0.0,0.0625,0.125,0.625,0.0,0.0,0.0,0.0,0.0,0.1875,0.0,2.62,1.089,1.75,0.5758,4.0,1.6286,True,tetragonal,4/mmm,123,14.8675,6.0624,0.2574
Mn1 Pb1 Rh2,3,0.0,0.0,0.0,0.0,0.0,0.0,0.0,0.0,0.0,0.75,2.5,0.78,0.324,0.45,0.1887,2.0,0.7071,True,cubic,m-3m,225,16.4995,11.7738,1.0
Ba6 Cr2 S10,3,0.0,0.0,0.3333,0.0,0.0,0.0,0.0,0.0,0.0,0.1111,-0.1111,1.69,0.7766,1.15,0.525,3.0,1.3699,True,hexagonal,6mm,185,25.6278,4.4946,1.5072
In4 Se4,2,0.0,0.0,0.0,0.5,0.0,0.0,0.0,0.0,0.0,0.0,0.5,0.77,0.385,0.4,0.2,1.0,0.5,True,monoclinic,2/m,12,29.8485,5.3901,0.3738
Pb1 Se1,2,0.0,0.0,0.0,0.5,0.0,0.0,0.0,0.0,0.0,0.0,0.0,0.22,0.11,0.65,0.325,2.0,1.0,True,cubic,m-3m,225,30.1796,7.8725,1.0
Ho2 Ni2 Si4,3,0.0,0.0,0.0,0.0,0.0,0.25,0.5,0.0,0.25,0.25,-0.75,0.68,0.2916,0.65,0.2658,5.0,2.0616,True,orthorhombic,mmm,63,16.1338,7.1993,0.4678
Ag1 Zr3,2,0.0,0.0,0.0,0.0,0.0,0.0,0.0,0.0,0.0,1.0,3.25,0.6,0.2598,0.05,0.0217,0.0,0.0,True,cubic,m-3m,221,21.5636,7.3453,1.0002
In2 Rb6 S6,3,0.0,0.4286,0.0,0.0,0.0,0.0,0.0,0.0,0.0,0.0,0.0,1.76,0.8152,1.35,0.6265,2.0,0.9897,True,monoclinic,2/m,12,35.1777,3.152,0.9731
Na4 Pt8 Se12,3,0.0,0.1667,0.0,0.5,0.0,0.0,0.0,0.0,0.0,0.3333,-0.1667,1.62,0.5763,0.65,0.2305,3.0,1.118,True,hexagonal,6mm,186,23.7851,7.5637,0.6465
Cu3 Pt1,2,0.0,0.0,0.0,0.0,0.0,0.0,0.0,0.0,0.0,1.0,2.0,0.38,0.1645,0.0,0.0,2.0,0.866,True,cubic,m-3m,221,12.8997,12.4132,1.0
F2 O2 Sm2,3,0.0,0.0,0.0,0.3333,0.3333,0.3333,0.0,0.0,0.3333,0.0,0.0,2.81,1.2175,1.35,0.6142,6.0,2.8284,True,trigonal,-3m,166,14.5574,7.0478,1.0
Na2 Nb6 O16,3,0.0,0.0833,0.0,0.6667,0.0,0.0,0.0,0.0,0.0,0.25,0.0,2.51,0.9611,1.2,0.4505,3.0,1.2802,True,orthorhombic,mmm,72,11.666,5.097,0.9769
Te1 Zr1,2,0.0,0.0,0.0,0.5,0.0,0.0,0.5,0.0,0.0,0.5,1.0,0.77,0.385,0.15,0.075,0.0,0.0,True,hexagonal,-6m2,187,24.3692,7.4554,0.9746
Bi6 In10,2,0.0,0.0,0.0,0.0,0.0,0.0,0.0,0.0,0.0,0.0,3.0,0.24,0.1162,0.05,0.0242,1.0,0.4841,True,tetragonal,4/mmm,140,29.8862,8.3415,0.9368
Li2 O14 P4 V2,4,0.0,0.0909,0.0,0.6364,0.0,0.0,0.0,0.0,0.0,0.0909,-1.2727,2.46,0.8679,0.85,0.3135,2.0,0.6428,True,triclinic,-1,2,11.8133,2.9624,0.9482
Be12 Ti1,2,0.0,0.0,0.9231,0.0,0.0,0.0,0.0,0.0,0.0,0.0769,2.1538,0.03,0.008,0.35,0.0933,2.0,0.5329,True,hexagonal,6/mmm,191,8.7312,2.2824,0.577
Mo4 Nd8 O24,3,0.0,0.0,0.0,0.6667,0.0,0.2222,0.0,0.0,0.2222,0.1111,-0.2222,2.3,0.9648,1.25,0.5375,6.0,2.4944,True,tetragonal,4/mmm,142,14.638,6.0555,0.3475
Ni3 Sb1,2,0.0,0.0,0.0,0.0,0.0,0.0,0.25,0.0,0.0,0.75,0.75,0.14,0.0606,0.1,0.0433,1.0,0.433,True,cubic,m-3m,225,12.9573,9.5424,1.0
Br4 O16 Tl4,3,0.0,0.0,0.0,0.6667,0.1667,0.0,0.0,0.0,0.0,0.0,-1.3333,1.82,0.666,1.3,0.4868,4.0,1.5275,True,orthorhombic,mmm,62,19.3761,4.9747,0.6678
Ga2 Pu1,2,0.3333,0.0,0.0,0.0,0.0,0.0,0.0,0.0,0.3333,0.0,3.3333,0.53,0.2498,0.45,0.2121,5.0,2.357,True,hexagonal,6/mmm,191,20.6656,10.2703,1.3462
C4 K8 O12,3,0.0,0.3333,0.0,0.5,0.0,0.0,0.0,0.0,0.0,0.0,-1.3333,2.62,1.1732,1.6,0.7433,2.0,0.9428,True,monoclinic,2/m,14,16.7106,2.2889,0.5807
Fe2 Si2 Tm1,3,0.0,0.0,0.0,0.0,0.0,0.2,0.4,0.0,0.2,0.4,-0.2,0.65,0.248,0.65,0.2408,5.0,1.8547,True,tetragonal,4/mmm,139,14.6611,7.6292,0.7185
Ge7 Mg6 Ni16,3,0.0,0.0,0.2069,0.0,0.0,0.0,0.2414,0.0,0.0,0.5517,0.5517,0.7,0.2586,0.25,0.0838,1.0,0.4051,True,cubic,m-3m,225,13.2498,6.886,1.0
Al8 I72 P16,3,0.0,0.0,0.0,0.0,0.75,0.0,0.0,0.0,0.0,0.0,-1.0,1.05,0.3181,0.4,0.1492,2.0,0.866,True,orthorhombic,mmm,61,48.6411,3.5022,0.5315
Cs12 In4 O12,3,0.0,0.4286,0.0,0.4286,0.0,0.0,0.0,0.0,0.0,0.0,0.0,2.65,1.2323,2.0,0.926,4.0,1.8844,True,monoclinic,2/m,14,26.4144,5.043,0.6217
Ba1 Fe4 O8 Sr1,4,0.0,0.0,0.1429,0.5714,0.0,0.0,0.0,0.0,0.0,0.2857,-0.2857,2.55,0.9877,1.55,0.5491,4.0,1.3344,True,trigonal,-3m,162,15.7147,4.3499,0.6781
Co2 Ge2 La2,3,0.0,0.0,0.0,0.0,0.0,0.3333,0.3333,0.0,0.3333,0.6667,0.3333,0.91,0.4019,0.7,0.3091,4.0,1.8856,True,tetragonal,4/mmm,129,20.754,7.2137,0.5948
Eu2 Ir2 Sn4,3,0.0,0.0,0.0,0.0,0.0,0.25,0.0,0.0,0.25,0.25,-0.75,2.2,0.8888,0.5,0.192,3.0,1.2247,True,orthorhombic,mmm,63,23.7494,10.1663,0.5732
B4 Li4 O8,3,0.0,0.25,0.0,0.5,0.0,0.0,0.25,0.0,0.0,0.0,0.0,2.46,1.0352,0.85,0.3473,0.0,0.0,True,monoclinic,2/m,14,9.9339,2.0791,0.6554
C12 F24 O12 Os2 Sb4,5,0.0,0.0,0.0,0.2222,0.4444,0.0,0.0741,0.0,0.0,0.037,-1.8519,1.93,0.7031,0.95,0.2718,4.0,1.0593,True,tetragonal,4/mmm,128,16.7301,3.0504,0.6668
Al4 Ge16 Sc22,3,0.0,0.0,0.0,0.0,0.0,0.0,0.381,0.0,0.0,0.5238,0.3333,0.65,0.3053,0.35,0.1748,1.0,0.2935,True,tetragonal,4/mmm,139,19.5321,4.573,0.9913
Er2 Rh6 Si4,3,0.0,0.0,0.0,0.0,0.0,0.1667,0.3333,0.0,0.1667,0.5,0.6667,1.04,0.372,0.65,0.2173,5.0,1.675,True,orthorhombic,mmm,74,15.989,9.211,0.8395
Pt2 Si1,2,0.0,0.0,0.0,0.0,0.0,0.0,0.3333,0.0,0.0,0.6667,0.0,0.38,0.1791,0.25,0.1179,3.0,1.4142,True,tetragonal,4/mmm,139,15.8318,14.623,0.9689
Cu4 K4 O4,3,0.0,0.3333,0.0,0.3333,0.0,0.0,0.0,0.0,0.0,0.3333,0.3333,2.62,1.0751,1.6,0.6536,2.0,0.9428,True,tetragonal,-42m,119,20.2879,3.2369,0.7733
Nb1 Se2,2,0.0,0.0,0.0,0.6667,0.0,0.0,0.0,0.0,0.0,0.3333,0.3333,0.95,0.4478,0.3,0.1414,1.0,0.4714,True,trigonal,-3m,164,23.6596,5.8681,0.5175
B4 F4 N8 Sr8,4,0.0,0.0,0.3333,0.0,0.1667,0.0,0.1667,0.0,0.0,0.0,0.0,3.03,1.1272,1.5,0.6386,3.0,1.4142,True,orthorhombic,mmm,62,16.786,3.8426,0.3821
Ca2 Cl2 F2,3,0.0,0.0,0.3333,0.0,0.6667,0.0,0.0,0.0,0.0,0.0,0.0,2.98,1.2569,1.3,0.5354,2.0,0.8165,True,tetragonal,4/mmm,129,17.687,2.9583,0.5652
F2 Nd2 Se2,3,0.0,0.0,0.0,0.3333,0.3333,0.3333,0.0,0.0,0.3333,0.0,0.0,2.84,1.1594,1.35,0.5513,6.0,2.4944,True,tetragonal,4/mmm,129,19.7951,6.7724,0.5591
Pd1 Zr1,2,0.0,0.0,0.0,0.0,0.0,0.0,0.0,0.0,0.0,1.0,3.0,0.87,0.435,0.15,0.075,0.0,0.0,True,cubic,m-3m,221,18.9216,8.6725,1.0
Pr1 Tl1,2,0.0,0.0,0.0,0.0,0.0,0.5,0.0,0.0,0.5,0.0,2.0,0.49,0.245,0.05,0.025,2.0,1.0,True,cubic,m-3m,221,30.6174,9.3634,1.0
B16 Ca8 Mg8 O40,4,0.0,0.0,0.2222,0.5556,0.0,0.0,0.2222,0.0,0.0,0.0,-0.0,2.44,0.9647,1.2,0.4248,2.0,0.6667,True,monoclinic,2/m,14,10.5424,2.9052,0.4491
Bi8 Br48 Rb24,3,0.0,0.3,0.0,0.0,0.6,0.0,0.0,0.0,0.0,0.0,0.0,2.14,0.9594,1.2,0.5369,2.0,0.6708,True,orthorhombic,mmm,62,40.4179,3.8817,0.3166
Nb2 S2,2,0.0,0.0,0.0,0.0,0.0,0.0,0.0,0.0,0.0,0.5,1.5,0.98,0.49,0.45,0.225,2.0,1.0,True,hexagonal,6/mmm,194,15.8199,6.5588,0.4963
Li4 O12 Rb4 Zn8,4,0.0,0.2857,0.0,0.4286,0.0,0.0,0.0,0.0,0.0,0.2857,0.0,2.62,1.1091,1.75,0.5986,3.0,1.1952,True,tetragonal,4/mmm,136,13.677,4.7042,0.3309
Er1 Te1,2,0.0,0.0,0.0,0.5,0.0,0.5,0.5,0.0,0.5,0.0,0.5,0.86,0.43,0.35,0.175,3.0,1.5,True,cubic,m-3m,225,28.4976,8.5906,1.0
B16 Ce30 N50,3,0.0,0.0,0.0,0.0,0.0,0.3125,0.1667,0.0,0.3125,0.0,-0.125,1.92,0.8549,1.2,0.5385,6.0,2.7811,True,trigonal,-3m,167,12.543,7.0011,1.0
Ca2 La4 Te8,3,0.0,0.0,0.1429,0.5714,0.0,0.2857,0.5714,0.0,0.2857,0.2857,0.0,1.1,0.5123,0.55,0.2517,4.0,1.4846,True,tetragonal,-42m,122,32.3867,6.0669,1.0
Ir8 S16,2,0.0,0.0,0.0,0.0,0.0,0.0,0.0,0.0,0.0,0.3333,-0.3333,0.38,0.1791,0.35,0.165,3.0,1.4142,True,orthorhombic,mmm,62,17.1534,8.2719,0.1803
Ag2 Er1 In1,3,0.0,0.0,0.0,0.0,0.0,0.25,0.0,0.0,0.25,0.5,2.0,0.69,0.2838,0.2,0.075,3.0,1.299,True,cubic,m-3m,225,21.2148,9.7413,1.0
Ba5 Ho8 O21 Zn4,4,0.0,0.0,0.1316,0.5526,0.0,0.2105,0.0,0.0,0.2105,0.1053,-0.0,2.55,1.1147,1.55,0.6149,6.0,2.4709,True,tetragonal,4/m,87,14.4989,7.8473,0.5622
C1 Ce3 Pb1,3,0.0,0.0,0.0,0.0,0.0,0.6,0.0,0.0,0.6,0.0,1.4,1.43,0.6504,1.15,0.4554,6.0,2.3324,True,cubic,m-3m,221,42.9025,4.9508,1.0
Ag1 Br1,2,0.0,0.0,0.0,0.0,0.5,0.0,0.0,0.0,0.0,0.5,0.0,1.03,0.515,0.45,0.225,1.0,0.5,True,cubic,m-3m,225,25.0461,6.2246,1.0
Ba4 O18 V6,3,0.0,0.0,0.1429,0.6429,0.0,0.0,0.0,0.0,0.0,0.2143,0.0714,2.55,1.0321,1.55,0.5637,4.0,1.4639,True,monoclinic,2,4,15.7366,4.3073,0.6264
Mg24 Tm5,2,0.0,0.0,0.8276,0.0,0.0,0.1724,0.0,0.0,0.1724,0.0,2.1724,0.06,0.0227,0.25,0.0944,5.0,1.8887,True,cubic,-43m,217,24.2884,3.3665,1.0
Ge6 Y10,2,0.0,0.0,0.0,0.0,0.0,0.0,0.375,0.0,0.0,0.625,0.375,0.79,0.3825,0.55,0.2663,1.0,0.4841,True,hexagonal,6/mmm,193,25.3668,5.4206,1.3244
Na2 O4,2,0.0,0.3333,0.0,0.6667,0.0,0.0,0.0,0.0,0.0,0.0,-1.0,2.51,1.1832,1.2,0.5657,1.0,0.4714,True,orthorhombic,mmm,58,13.8971,2.1902,0.6122
C4 N24 Si16 Y8,4,0.0,0.0,0.0,0.0,0.0,0.0,0.3077,0.0,0.0,0.1538,-2.4615,1.82,0.6936,1.15,0.405,3.0,1.0491,True,monoclinic,2/m,14,11.9136,4.1408,0.5735
Na16 O20 Se4,3,0.0,0.4,0.0,0.6,0.0,0.0,0.0,0.0,0.0,0.0,-0.8,2.51,1.1852,1.2,0.5657,2.0,0.6633,True,triclinic,-1,2,12.8304,3.2474,0.5661
La1 Zn5,2,0.0,0.0,0.0,0.0,0.0,0.1667,0.0,0.0,0.1667,1.0,2.1667,0.55,0.205,0.6,0.2236,4.0,1.4907,True,hexagonal,6/mmm,191,18.5086,6.9673,1.2706
Al2 Br14 Se2,3,0.0,0.0,0.0,0.1111,0.7778,0.0,0.0,0.0,0.0,0.0,-0.6667,1.35,0.4277,0.1,0.0314,1.0,0.3143,True,monoclinic,m,7,39.8548,3.0798,0.4459
B6 Mg3 Ni20,3,0.0,0.0,0.1034,0.0,0.0,0.0,0.2069,0.0,0.0,0.6897,2.2069,0.73,0.1987,0.65,0.2152,2.0,0.8146,True,cubic,m-3m,225,10.1415,7.4057,1.0
B8 O14 Sn2,3,0.0,0.0,0.0,0.5833,0.0,0.0,0.3333,0.0,0.0,0.0,-0.5,1.48,0.6984,0.85,0.2393,3.0,0.8292,True,orthorhombic,mm2,31,8.8017,4.307,0.3897
C2 In2 Zr4,3,0.0,0.0,0.0,0.0,0.0,0.0,0.0,0.0,0.0,0.5,1.75,1.22,0.4984,0.85,0.3681,3.0,1.299,True,hexagonal,6/mmm,194,18.627,6.8928,0.2231
Al2 H8 Na2,3,0.0,0.1667,0.0,0.0,0.0,0.0,0.0,0.0,0.0,0.0,0.0,1.27,0.4803,1.55,0.6217,2.0,0.9428,True,tetragonal,4/m,88,11.4807,1.3018,0.7585
Ca8 Sn4,2,0.0,0.0,0.6667,0.0,0.0,0.0,0.0,0.0,0.0,0.0,0.0,0.96,0.4525,0.35,0.165,1.0,0.4714,True,orthorhombic,mmm,62,32.2561,3.4125,0.5287
Cu2 Eu2 F2 S2,4,0.0,0.0,0.0,0.0,0.25,0.25,0.0,0.0,0.25,0.25,0.25,3.98,1.433,1.35,0.4931,6.0,2.2776,True,tetragonal,4/mmm,129,16.6092,6.6628,0.4548
Ga4 Nb16 S32,3,0.0,0.0,0.0,0.0,0.0,0.0,0.0,0.0,0.0,0.3077,0.5385,0.98,0.4593,0.45,0.2077,2.0,0.9102,True,tetragonal,-42m,113,19.7466,4.5143,0.9999
Ba2 Cu4 Er1 O8,4,0.0,0.0,0.1333,0.5333,0.0,0.0667,0.0,0.0,0.0667,0.2667,-0.0667,2.55,1.0084,1.55,0.57,6.0,1.8571,True,orthorhombic,mmm,65,13.7983,6.6116,0.2793
Cu2 Hg1 I4,3,0.0,0.0,0.0,0.0,0.5714,0.0,0.0,0.0,0.0,0.4286,0.1429,0.76,0.3609,0.15,0.0463,2.0,0.6389,True,monoclinic,m,8,34.6197,5.7236,0.809
As4 Na12 S12,3,0.0,0.4286,0.0,0.0,0.0,0.0,0.1429,0.0,0.0,0.0,-0.8571,1.65,0.7781,0.8,0.3805,1.0,0.3499,True,cubic,23,198,22.9879,2.4775,1.0
C1 S2 Ta2,3,0.0,0.0,0.0,0.0,0.0,0.0,0.0,0.0,0.0,0.4,0.4,1.08,0.5243,0.75,0.2909,4.0,1.6733,True,trigonal,-3m,166,18.0025,8.0809,1.0
Rh2 Si2 Y1,3,0.0,0.0,0.0,0.0,0.0,0.0,0.4,0.0,0.0,0.6,0.2,1.06,0.3873,0.7,0.2557,2.0,0.9798,True,tetragonal,4/mmm,139,16.5781,7.0293,0.705
B4 Mg6 O12,3,0.0,0.0,0.2727,0.5455,0.0,0.0,0.1818,0.0,0.0,0.0,0.0,2.13,0.9464,0.9,0.3842,1.0,0.4454,True,orthorhombic,mmm,58,9.5919,2.9986,0.5338
B16 C8 Tm8,3,0.0,0.0,0.0,0.0,0.0,0.25,0.5,0.0,0.25,0.0,1.25,1.3,0.4649,1.05,0.4159,6.0,2.5981,True,tetragonal,4/mmm,135,10.4042,8.0826,0.9264
Al1 Co2 Zr1,3,0.0,0.0,0.0,0.0,0.0,0.0,0.0,0.0,0.0,0.75,2.75,0.55,0.2277,0.3,0.109,2.0,0.7071,True,cubic,m-3m,225,14.0608,6.9698,1.0
Fe11 Ni8 O24,3,0.0,0.0,0.0,0.5581,0.0,0.0,0.0,0.0,0.0,0.4419,-0.2326,1.61,0.7833,0.8,0.3872,2.0,0.9932,True,triclinic,-1,2,10.7735,5.2614,0.3248
B4 Be2 Na4 O10,4,0.0,0.2,0.1,0.5,0.0,0.0,0.2,0.0,0.0,0.0,0.0,2.51,1.0309,1.2,0.4566,1.0,0.4,True,monoclinic,2/m,15,10.8975,2.3864,0.5524