formula,numberOfSpecies,fracActinoid,fracAlkali,fracAlkaline,fracChalcogen,fracHalogen,fracLanthanoid,fracMetalloid,fracNobleGas,fracRareEarth,fracTransitionMetal,electronsPerAtom,electronegativityRange,electronegativityStd,radiiRange,radiiStd,rowRange,rowStd,ordered,crystalSystem,pointGroup,spaceGroupNumber,volumePerSite,density,c_a
La20 Sn16,2,0.0,0.0,0.0,0.0,0.0,0.5556,0.0,0.0,0.5556,0.5556,-0.1111,0.86,0.4273,0.5,0.2485,3.0,1.4907,True,orthorhombic,mmm,62,33.563,6.4283,0.5233
F2 O4 Ta2,3,0.0,0.0,0.0,0.5,0.25,0.0,0.0,0.0,0.0,0.25,0.0,2.48,0.9441,0.95,0.3847,4.0,1.7321,True,tetragonal,4/mmm,131,15.4009,6.2521,0.5121
Al2 F12 Na6,3,0.0,0.3,0.0,0.0,0.6,0.0,0.0,0.0,0.0,0.0,0.0,3.05,1.4231,1.3,0.5891,1.0,0.4899,True,monoclinic,2/m,14,12.2575,2.8441,0.6941
Li8 O12 Te4,3,0.0,0.3333,0.0,0.6667,0.0,0.0,0.1667,0.0,0.0,0.0,-1.0,2.46,1.1081,0.85,0.417,3.0,1.118,True,monoclinic,2/m,15,14.7206,3.5623,0.371
Ga1 Ni2 Sc1,3,0.0,0.0,0.0,0.0,0.0,0.0,0.0,0.0,0.0,0.75,2.5,0.55,0.2274,0.3,0.1173,0.0,0.0,True,cubic,m-3m,225,13.789,6.9866,1.0
Lu1 Ni2 Si2,3,0.0,0.0,0.0,0.0,0.0,0.2,0.4,0.0,0.2,0.4,-0.2,0.64,0.254,0.65,0.2379,3.0,1.0954,True,tetragonal,4/mmm,139,14.5391,7.9611,0.7142
Cr5 Rb1 Se8,3,0.0,0.0714,0.0,0.5714,0.0,0.0,0.0,0.0,0.0,0.3571,0.0,1.73,0.5494,1.2,0.3075,1.0,0.2575,True,monoclinic,2/m,12,22.2834,5.201,0.3816
Cu10 O26 P6,3,0.0,0.0,0.0,0.619,0.0,0.0,0.0,0.0,0.0,0.2381,-1.1905,1.54,0.7004,0.75,0.3182,2.0,0.8438,True,triclinic,-1,2,12.1367,4.0306,0.6177
Pd14 Se4,2,0.0,0.0,0.0,0.2222,0.0,0.0,0.0,0.0,0.0,0.7778,1.1111,0.35,0.1455,0.25,0.1039,1.0,0.4157,True,monoclinic,2/m,14,16.2582,10.246,0.5684
Co2 Mn2 Si2,3,0.0,0.0,0.0,0.0,0.0,0.0,0.3333,0.0,0.0,0.6667,0.0,0.35,0.1605,0.3,0.1312,1.0,0.4714,True,hexagonal,6/mmm,194,11.5402,6.8088,0.785
Ge3 O6,2,0.0,0.0,0.0,0.6667,0.0,0.0,0.3333,0.0,0.0,0.0,-2.6667,1.43,0.6741,0.65,0.3064,2.0,0.9428,True,trigonal,32,152,12.7812,4.5316,0.9173
Co2 Y2,2,0.0,0.0,0.0,0.0,0.0,0.0,0.0,0.0,0.0,1.0,2.5,0.66,0.33,0.45,0.225,1.0,0.5,True,orthorhombic,mmm,63,20.3211,6.0403,0.7028
Gd4 O14 Sn4,3,0.0,0.0,0.0,0.6364,0.0,0.1818,0.0,0.0,0.1818,0.0,-1.4545,2.24,0.9236,1.2,0.5042,6.0,2.3461,True,cubic,m-3m,227,13.4866,7.4313,1.0
Li4 O12 Sb4,3,0.0,0.2,0.0,0.6,0.0,0.0,0.2,0.0,0.0,0.0,-1.6,2.46,1.0019,0.85,0.4164,3.0,1.2,True,orthorhombic,mmm,52,11.3245,5.182,0.5799
Co2 Nb8 P2,3,0.0,0.0,0.0,0.0,0.0,0.0,0.0,0.0,0.0,0.8333,3.1667,0.59,0.2237,0.45,0.1644,2.0,0.7638,True,tetragonal,4/mmm,124,15.8792,8.044,0.8177
Ag2 Ho1 In1,3,0.0,0.0,0.0,0.0,0.0,0.25,0.0,0.0,0.25,0.5,2.0,0.7,0.288,0.2,0.075,3.0,1.299,True,cubic,m-3m,225,21.3599,9.6299,1.0
C1 Cr1,2,0.0,0.0,0.0,0.0,0.0,0.0,0.0,0.0,0.0,0.5,-0.5,0.89,0.445,0.7,0.35,2.0,1.0,True,cubic,m-3m,225,8.6663,6.1321,1.0
Co7 Ge6 Zr4,3,0.0,0.0,0.0,0.0,0.0,0.0,0.3529,0.0,0.0,0.6471,0.3529,0.68,0.2649,0.3,0.1131,1.0,0.4242,True,cubic,m-3m,229,14.4941,8.1765,1.0
C8 N8 S16,3,0.0,0.0,0.0,0.0,0.0,0.0,0.0,0.0,0.0,0.0,-2.75,0.49,0.2039,0.35,0.1635,1.0,0.5,True,monoclinic,2/m,14,25.2335,1.4831,0.7721
Eu1 Ru4 Sb12,3,0.0,0.0,0.0,0.0,0.0,0.0588,0.7059,0.0,0.0588,0.2353,-1.2941,2.2,0.4952,0.55,0.1207,3.0,0.7059,True,cubic,m-3,204,24.4837,8.0484,1.0
B2 N4 Pr3,3,0.0,0.0,0.0,0.0,0.0,0.3333,0.2222,0.0,0.3333,0.0,0.3333,1.91,0.837,1.2,0.5398,6.0,2.8284,True,orthorhombic,mmm,71,13.8774,6.6526,0.5472
Cu2 Se1,2,0.0,0.0,0.0,0.3333,0.0,0.0,0.0,0.0,0.0,0.6667,0.6667,0.65,0.3064,0.2,0.0943,0.0,0.0,True,cubic,-43m,216,16.079,7.0933,1.0
As2 Cu2 Si2 Zr2,4,0.0,0.0,0.0,0.0,0.0,0.0,0.5,0.0,0.0,0.5,-0.25,0.85,0.3091,0.45,0.1781,2.0,0.7071,True,tetragonal,4/mmm,129,16.3661,6.5386,0.3805
Cu4 Ge2 Se8 Sr2,4,0.0,0.0,0.125,0.5,0.0,0.0,0.125,0.0,0.0,0.25,-0.75,1.6,0.5265,0.85,0.2703,1.0,0.3307,True,orthorhombic,mm2,40,24.4383,5.1232,0.5835
Cu2 P2 Th1,3,0.2,0.0,0.0,0.0,0.0,0.0,0.0,0.0,0.2,0.4,0.4,0.89,0.325,0.8,0.295,6.0,2.245,True,trigonal,-3m,164,18.1344,7.7115,0.6194
Mo6 S8 Sr1,3,0.0,0.0,0.0667,0.0,0.0,0.0,0.0,0.0,0.0,0.4,0.6667,1.63,0.4137,1.0,0.2947,2.0,0.9978,True,trigonal,-3,148,19.3285,5.268,1.0
P4 Pb4 Se12,3,0.0,0.0,0.0,0.6,0.0,0.0,0.0,0.0,0.0,0.0,-1.4,0.36,0.1488,0.8,0.2811,3.0,0.9798,True,monoclinic,m,7,27.413,5.7553,0.7233
C8 N8 S8 Se4,4,0.0,0.0,0.0,0.1429,0.0,0.0,0.0,0.0,0.0,0.0,-2.8571,0.49,0.2163,0.5,0.1922,2.0,0.7284,True,orthorhombic,mmm,62,23.3836,1.9795,0.3508
Au1 Bi1 Yb1,3,0.0,0.0,0.0,0.0,0.0,0.3333,0.0,0.0,0.3333,0.3333,3.0,2.54,1.0956,0.4,0.165,2.0,0.9428,True,cubic,-43m,216,29.6766,10.799,1.0
Al20 Mn6,2,0.0,0.0,0.0,0.0,0.0,0.0,0.0,0.0,0.0,0.2308,2.7692,0.06,0.0253,0.15,0.0632,1.0,0.4213,True,hexagonal,6/mmm,194,14.6741,3.7833,0.9656
Cs2 Cu2 Se8 Sm4,4,0.0,0.125,0.0,0.5,0.0,0.25,0.0,0.0,0.25,0.125,0.125,1.76,0.706,1.45,0.4949,4.0,1.7139,True,orthorhombic,mmm,63,28.8839,5.8425,0.2884
Cu8 O20 Sc8,3,0.0,0.0,0.0,0.5556,0.0,0.0,0.0,0.0,0.0,0.4444,-0.0,2.08,0.9172,1.0,0.4427,2.0,0.9938,True,orthorhombic,mm2,33,11.5497,4.7445,0.2679
In1 Na1 O2,3,0.0,0.25,0.0,0.5,0.0,0.0,0.0,0.0,0.0,0.0,0.0,2.51,1.085,1.2,0.5447,3.0,1.2247,True,trigonal,-3m,166,12.9511,5.443,1.0
Au4 Ca4 Pb2,3,0.0,0.0,0.4,0.0,0.0,0.0,0.0,0.0,0.0,0.4,2.4,1.54,0.7242,0.45,0.2205,2.0,0.9798,True,tetragonal,4/mmm,127,25.6972,8.8049,0.4532
K9 O30 Ta10,3,0.0,0.1837,0.0,0.6122,0.0,0.0,0.0,0.0,0.0,0.2041,-0.0204,2.62,1.1223,1.6,0.6319,4.0,1.6121,True,triclinic,-1,2,13.2972,6.7316,2.2362
B6 O18 Yb6,3,0.0,0.0,0.0,0.6,0.0,0.2,0.2,0.0,0.2,0.0,0.0,3.44,1.3497,1.15,0.4456,6.0,2.4,True,hexagonal,-6m2,188,11.5959,6.6402,0.732
Ce1 Zn5,2,0.0,0.0,0.0,0.0,0.0,0.1667,0.0,0.0,0.1667,0.8333,2.1667,0.53,0.1975,0.5,0.1863,4.0,1.4907,True,hexagonal,6/mmm,191,17.8728,7.2339,1.2568
Cl8 Er2 Na2,3,0.0,0.1667,0.0,0.0,0.6667,0.1667,0.0,0.0,0.1667,0.0,0.0,2.23,0.9822,0.8,0.3656,5.0,1.8634,True,monoclinic,2/m,13,28.1994,3.2589,0.8342
C6 S16,2,0.0,0.0,0.0,0.0,0.0,0.0,0.0,0.0,0.0,0.0,-2.5455,0.03,0.0134,0.3,0.1336,1.0,0.4454,True,triclinic,-1,2,26.0572,1.6949,0.3978
Na8 O48 P8 W8,4,0.0,0.1111,0.0,0.6667,0.0,0.0,0.0,0.0,0.0,0.1111,-1.1111,2.51,0.845,1.2,0.4148,4.0,1.2472,True,monoclinic,2/m,14,13.3552,4.6115,0.5267
Ni4 O12 Tm4,3,0.0,0.0,0.0,0.6,0.0,0.2,0.0,0.0,0.2,0.2,-0.2,2.19,0.9348,1.15,0.4823,6.0,2.3324,True,monoclinic,2/m,14,10.6631,8.5845,0.7005
Ag2 La6 Se14 Si2,4,0.0,0.0,0.0,0.5833,0.0,0.25,0.0833,0.0,0.25,0.3333,-0.6667,1.45,0.6112,0.85,0.3502,5.0,1.7795,True,hexagonal,6,173,26.3403,5.8072,1.782
Ag3 Sn3 Yb3,3,0.0,0.0,0.0,0.0,0.0,0.3333,0.0,0.0,0.3333,0.3333,0.0,1.96,0.917,0.3,0.1225,3.0,1.4142,True,hexagonal,-6m2,187,24.3502,9.0839,0.4427
I1 Rb1,2,0.0,0.5,0.0,0.0,0.5,0.0,0.0,0.0,0.0,0.0,0.0,1.84,0.92,0.95,0.475,0.0,0.0,True,cubic,m-3m,225,52.4786,3.36,1.0
Cu2 Li4 O8 P2,4,0.0,0.25,0.0,0.5,0.0,0.0,0.0,0.0,0.0,0.125,-0.875,2.46,1.0372,0.85,0.3795,2.0,0.696,True,orthorhombic,mm2,31,10.4928,3.4104,1.2286
Cd4 O14 Re4,3,0.0,0.0,0.0,0.6364,0.0,0.0,0.0,0.0,0.0,0.3636,-0.1818,1.75,0.7938,0.95,0.4133,4.0,1.7104,True,cubic,m-3m,227,12.7221,8.4156,1.0
Pb1 S1,2,0.0,0.0,0.0,0.0,0.0,0.0,0.0,0.0,0.0,0.0,0.0,0.25,0.125,0.8,0.4,3.0,1.5,True,cubic,m-3m,221,24.3868,8.146,1.0
Bi13 O20,2,0.0,0.0,0.0,0.6061,0.0,0.0,0.0,0.0,0.0,0.0,-0.0303,1.42,0.6938,1.0,0.4886,4.0,1.9545,True,cubic,23,197,17.3155,8.8248,1.0
Ce3 Ir3 Sn3,3,0.0,0.0,0.0,0.0,0.0,0.3333,0.0,0.0,0.3333,0.3333,0.6667,1.08,0.463,0.5,0.216,3.0,1.2472,True,hexagonal,-6m2,189,22.0932,11.3002,1.8356
C2 Ca1 K2 O6,4,0.0,0.1818,0.0909,0.5455,0.0,0.0,0.0,0.0,0.0,0.0,-1.4545,2.62,1.0926,1.6,0.6506,2.0,0.8907,True,trigonal,-3m,166,14.4467,2.49,1.0
Br24 Cs8 Sb4,3,0.0,0.2222,0.0,0.0,0.6667,0.0,0.1111,0.0,0.0,0.0,-0.7778,2.17,0.8934,1.45,0.5923,2.0,0.8315,True,tetragonal,4/mmm,141,39.4108,4.0589,0.8119
Eu6 O14 Ru2,3,0.0,0.0,0.0,0.6364,0.0,0.2727,0.0,0.0,0.2727,0.0909,-0.4545,3.44,1.5042,1.25,0.5541,6.0,2.6442,True,orthorhombic,mmm,63,13.8766,7.2773,0.8686
Li4 Nb4 O16 Zn4,4,0.0,0.1429,0.0,0.5714,0.0,0.0,0.0,0.0,0.0,0.2857,-0.0,2.46,1.0242,0.85,0.4053,3.0,1.1606,True,tetragonal,422,95,11.5709,4.7,0.7256
Dy2 Ga2,2,0.0,0.0,0.0,0.0,0.0,0.5,0.0,0.0,0.5,0.0,3.0,0.59,0.295,0.45,0.225,4.0,2.0,True,orthorhombic,mmm,63,24.0813,8.0065,0.6952
Ge2 Th4,2,0.6667,0.0,0.0,0.0,0.0,0.0,0.3333,0.0,0.6667,0.0,1.3333,0.71,0.3347,0.55,0.2593,5.0,2.357,True,tetragonal,4/mmm,140,27.8954,10.6498,1.0
Gd3 Ge3 Li3,3,0.0,0.3333,0.0,0.0,0.0,0.3333,0.3333,0.0,0.3333,0.0,0.0,1.03,0.4429,0.55,0.2273,6.0,2.4944,True,hexagonal,-6m2,189,21.1873,6.1872,1.6612
Ag6 Sr9,2,0.0,0.0,0.6,0.0,0.0,0.0,0.0,0.0,0.0,0.4,1.6,0.98,0.4801,0.4,0.196,0.0,0.0,True,trigonal,-3,148,36.2476,4.385,1.0
Ca2 H8 O12 Se2,4,0.0,0.0,0.0833,0.5833,0.0,0.0,0.0,0.0,0.0,0.0,-1.3333,2.44,0.7729,1.55,0.4303,3.0,1.0,True,monoclinic,2/m,15,11.429,2.6524,0.6944
C1 Tb2,2,0.0,0.0,0.0,0.0,0.0,0.6667,0.0,0.0,0.6667,0.0,0.6667,2.55,1.2021,1.05,0.495,6.0,2.8284,True,trigonal,-3m,166,23.3934,7.8049,1.0
B14 Fe62 Y3,3,0.0,0.0,0.0,0.0,0.0,0.0,0.1772,0.0,0.0,0.8228,2.2152,0.82,0.1475,0.95,0.23,3.0,0.8042,True,cubic,m-3m,229,11.2745,7.2345,1.0
Nb6 Sb2,2,0.0,0.0,0.0,0.0,0.0,0.0,0.25,0.0,0.0,0.75,3.0,0.45,0.1949,0.0,0.0,0.0,0.0,True,cubic,m-3m,223,18.7361,8.8734,1.0
Al14 Au6 Nd2,3,0.0,0.0,0.0,0.0,0.0,0.0909,0.0,0.0,0.0909,0.2727,3.0,1.4,0.4599,0.6,0.1696,5.0,1.7628,True,trigonal,-3m,167,18.5817,7.5067,1.0
Cl2 Cu1,2,0.0,0.0,0.0,0.0,0.6667,0.0,0.0,0.0,0.0,0.3333,0.0,1.26,0.594,0.35,0.165,1.0,0.4714,True,monoclinic,2/m,12,25.205,2.9526,0.5272
Cs4 I28 Ti8,3,0.0,0.1,0.0,0.0,0.7,0.0,0.0,0.0,0.0,0.2,0.2,1.87,0.657,1.2,0.36,2.0,0.5385,True,trigonal,-3,148,50.3038,3.6871,1.0
In3 Pu1,2,0.25,0.0,0.0,0.0,0.0,0.0,0.0,0.0,0.25,0.0,3.25,0.5,0.2165,0.2,0.0866,4.0,1.7321,True,cubic,m-3m,221,25.463,9.5938,1.0
Al2 Li1 Rh1,3,0.0,0.25,0.0,0.0,0.0,0.0,0.0,0.0,0.0,0.25,2.5,1.3,0.4597,0.2,0.0829,3.0,1.0897,True,cubic,m-3m,225,13.7604,4.942,1.0
In1 N1 Tb3,3,0.0,0.0,0.0,0.0,0.0,0.6,0.0,0.0,0.6,0.0,1.8,3.04,1.2461,1.1,0.4271,6.0,2.4,True,cubic,m-3m,221,22.795,8.8232,1.0
Si34,1,0.0,0.0,0.0,0.0,0.0,0.0,1.0,0.0,0.0,0.0,-4.0,0.0,0.0,0.0,0.0,0.0,0.0,True,cubic,m-3m,227,23.5435,1.9809,1.0
Cd1 V3,2,0.0,0.0,0.0,0.0,0.0,0.0,0.0,0.0,0.0,1.0,4.25,0.06,0.026,0.2,0.0866,1.0,0.433,True,cubic,m-3m,221,15.208,7.2402,1.0
Co3 S2 Sn2,3,0.0,0.0,0.0,0.0,0.0,0.0,0.0,0.0,0.0,0.4286,-0.8571,0.7,0.3036,0.45,0.181,2.0,0.7559,True,trigonal,-3m,166,15.791,7.186,1.0
Sn2 V6,2,0.0,0.0,0.0,0.0,0.0,0.0,0.0,0.0,0.0,0.75,2.75,0.33,0.1429,0.1,0.0433,1.0,0.433,True,cubic,m-3m,223,15.2989,7.3681,1.0
Hf10 Ni30,2,0.0,0.0,0.0,0.0,0.0,0.0,0.0,0.0,0.0,1.0,2.5,0.61,0.2641,0.2,0.0866,2.0,0.866,True,hexagonal,6/mmm,194,12.8576,11.4481,0.246
F25 K1 Th6,3,0.1875,0.0313,0.0,0.0,0.7813,0.0,0.0,0.0,0.1875,0.0,0.0,3.16,1.139,1.7,0.5648,7.0,2.7243,True,trigonal,-3m,166,16.145,6.127,1.0
Hg1 O2,2,0.0,0.0,0.0,0.6667,0.0,0.0,0.0,0.0,0.0,0.3333,-1.0,1.44,0.6788,0.9,0.4243,4.0,1.8856,True,monoclinic,2/m,12,15.9148,8.0894,1.2334
Ag2 Na4 Sb2,3,0.0,0.5,0.0,0.0,0.0,0.0,0.25,0.0,0.0,0.25,0.0,1.12,0.5317,0.35,0.1474,2.0,1.0,True,orthorhombic,mmm,63,26.9666,4.2428,0.9527
As8 F64 Kr12,3,0.0,0.0,0.0,0.0,0.7619,0.0,0.0952,0.1429,0.0,0.0,-1000,1.8,0.5906,-1000,-1000,2.0,0.8518,True,monoclinic,2/m,14,17.8228,3.1288,0.2524
Ca1 H1 N1,3,0.0,0.0,0.3333,0.0,0.0,0.0,0.0,0.0,0.0,0.0,-0.6667,2.04,0.8371,1.55,0.657,3.0,1.2472,True,tetragonal,4mm,107,11.9344,2.5552,1.0
Ir4 Tm2,2,0.0,0.0,0.0,0.0,0.0,0.3333,0.0,0.0,0.3333,0.6667,3.0,0.95,0.4478,0.4,0.1886,2.0,0.9428,True,cubic,m-3m,227,17.8579,17.1519,1.0
Cu8 Na6 S8,3,0.0,0.2727,0.0,0.0,0.0,0.0,0.0,0.0,0.0,0.3636,0.2727,1.65,0.6515,0.8,0.3158,1.0,0.481,True,orthorhombic,mmm,55,17.9311,3.8004,0.2569
Os2 Pr1 Si2,3,0.0,0.0,0.0,0.0,0.0,0.2,0.4,0.0,0.2,0.4,0.6,1.07,0.3917,0.75,0.275,5.0,1.9391,True,tetragonal,4/mmm,139,17.7576,10.8013,0.7254
Ba4 P4 Se12,3,0.0,0.0,0.2,0.6,0.0,0.0,0.0,0.0,0.0,0.0,-1.4,1.66,0.6433,1.15,0.419,3.0,0.9798,True,monoclinic,2/m,14,30.3815,4.4291,0.6873
S12 Sn4 Zr4,3,0.0,0.0,0.0,0.0,0.0,0.0,0.0,0.0,0.0,0.2,-1.2,1.25,0.4995,0.55,0.247,2.0,0.9798,True,orthorhombic,mmm,62,25.4263,3.9985,0.2653
Bi8 O16 Pd4,3,0.0,0.0,0.0,0.5714,0.0,0.0,0.0,0.0,0.0,0.1429,0.0,1.42,0.6753,1.0,0.466,4.0,1.8406,True,tetragonal,4/mmm,130,16.3448,8.5394,0.7164
Mn30 Si52,2,0.0,0.0,0.0,0.0,0.0,0.0,0.6341,0.0,0.0,0.3659,-1.8049,0.35,0.1686,0.3,0.1445,1.0,0.4817,True,tetragonal,-42m,122,11.9737,5.2574,0.1677
In2 Na10 S8,3,0.0,0.5,0.0,0.0,0.0,0.0,0.0,0.0,0.0,0.0,0.0,1.65,0.7786,0.8,0.3785,2.0,0.6,True,monoclinic,2/m,11,23.889,2.4887,0.7695
Co2 Ge1 Mn1,3,0.0,0.0,0.0,0.0,0.0,0.0,0.25,0.0,0.0,0.75,0.5,0.46,0.1701,0.15,0.0545,0.0,0.0,True,cubic,m-3m,225,11.8449,8.6022,1.0
C1 Ga1 Pr3,3,0.0,0.0,0.0,0.0,0.0,0.6,0.0,0.0,0.6,0.0,1.6,1.42,0.5651,1.15,0.4576,6.0,2.5298,True,cubic,m-3m,221,33.9583,4.9335,1.0
As2 Cr6 N2,3,0.0,0.0,0.0,0.0,0.0,0.0,0.2,0.0,0.0,0.6,0.6,1.38,0.539,0.75,0.2915,2.0,0.8,True,tetragonal,4/mmm,140,11.2861,7.207,0.9761
Cr1 Nd1 O3,3,0.0,0.0,0.0,0.6,0.0,0.2,0.0,0.0,0.2,0.2,0.0,2.3,1.0128,1.25,0.5219,6.0,2.3324,True,cubic,m-3m,221,11.8812,6.827,1.0
Cl1 Na1,2,0.0,0.5,0.0,0.0,0.5,0.0,0.0,0.0,0.0,0.0,0.0,2.23,1.115,0.8,0.4,0.0,0.0,True,cubic,m-3m,221,21.5195,2.2549,1.0
Pr1,1,0.0,0.0,0.0,0.0,0.0,1.0,0.0,0.0,1.0,0.0,3.0,0.0,0.0,0.0,0.0,0.0,0.0,True,cubic,m-3m,225,36.4644,6.4167,1.0
I20 Pb4 Tl12,3,0.0,0.0,0.0,0.0,0.5556,0.0,0.0,0.0,0.0,0.0,0.0,1.04,0.4751,0.5,0.2378,1.0,0.4969,True,orthorhombic,222,19,41.3382,6.4935,0.5499
N1 Nd1,2,0.0,0.0,0.0,0.0,0.0,0.5,0.0,0.0,0.5,0.0,0.0,1.9,0.95,1.2,0.6,6.0,3.0,True,cubic,m-3m,225,17.2259,7.6274,1.0
Ba5 Gd8 O21 Zn4,4,0.0,0.0,0.1316,0.5526,0.0,0.2105,0.0,0.0,0.2105,0.1053,-0.0,2.55,1.1217,1.55,0.6259,6.0,2.4709,True,tetragonal,4/m,87,15.1061,7.3542,0.5618
Fe2 H18 Mg1 O18 P2,5,0.0,0.0,0.0244,0.439,0.0,0.0,0.0,0.0,0.0,0.0488,-1.3171,2.13,0.6685,1.25,0.3274,3.0,0.7971,True,triclinic,-1,2,8.8315,2.3117,0.5221
O2 W6,2,0.0,0.0,0.0,0.25,0.0,0.0,0.0,0.0,0.0,0.75,2.5,1.08,0.4677,0.75,0.3248,4.0,1.7321,True,cubic,m-3m,223,15.4396,15.2593,1.0
B4 Fe3 O12 Tb1,4,0.0,0.0,0.0,0.6,0.0,0.05,0.2,0.0,0.05,0.15,-0.15,3.44,0.9442,1.15,0.3505,6.0,1.4283,True,trigonal,32,155,10.2807,4.5363,1.0
Ag2 Nd1 Si2,3,0.0,0.0,0.0,0.0,0.0,0.2,0.4,0.0,0.2,0.4,-0.6,0.79,0.3103,0.75,0.3,5.0,1.833,True,tetragonal,4/mmm,139,19.419,7.1171,0.6897
Fe1 Mo1 O6 Sr2,4,0.0,0.0,0.2,0.6,0.0,0.0,0.0,0.0,0.0,0.2,-0.2,2.49,1.0216,1.4,0.5747,3.0,1.3748,True,tetragonal,4/mmm,139,12.8696,5.4582,0.9952
Co1 Cu2 Ge1 S4,4,0.0,0.0,0.0,0.0,0.0,0.0,0.125,0.0,0.0,0.375,-0.75,0.7,0.3307,0.35,0.1654,1.0,0.5,True,tetragonal,-42m,121,18.3482,4.3772,0.8153
Cu2 Rb2 S8 Sm4,4,0.0,0.125,0.0,0.0,0.0,0.25,0.0,0.0,0.25,0.125,0.125,1.76,0.7139,1.35,0.4931,5.0,2.0578,True,orthorhombic,mmm,63,24.8006,4.8375,0.2901
Co2 Li16 O12,3,0.0,0.5333,0.0,0.4,0.0,0.0,0.0,0.0,0.0,0.0667,-0.1333,2.46,1.1767,0.85,0.4117,2.0,0.4989,True,hexagonal,6mm,185,9.7114,2.3991,0.5098
Br28 Re12 S28,3,0.0,0.0,0.0,0.0,0.4118,0.0,0.0,0.0,0.0,0.1765,-0.5294,1.06,0.3738,0.35,0.125,3.0,1.0556,True,trigonal,3m,159,32.9769,3.9762,0.3833
Ba2 Nb1 Nd1 O6,4,0.0,0.0,0.2,0.6,0.0,0.1,0.0,0.0,0.1,0.1,0.0,2.55,1.1464,1.55,0.6623,6.0,2.1932,True,monoclinic,2/m,12,16.3768,6.1628,1.0017
Al4 Ce4 Pt4,3,0.0,0.0,0.0,0.0,0.0,0.3333,0.0,0.0,0.3333,0.3333,2.6667,1.16,0.4755,0.6,0.2625,5.0,2.0548,True,orthorhombic,mmm,62,20.6796,9.6942,0.554
Ni2 Si2 Th1,3,0.2,0.0,0.0,0.0,0.0,0.0,0.4,0.0,0.2,0.4,0.0,0.61,0.242,0.7,0.2557,6.0,2.245,True,tetragonal,4/mmm,139,15.9115,8.4657,0.7332
Fe4 Na12 O12,3,0.0,0.4286,0.0,0.4286,0.0,0.0,0.0,0.0,0.0,0.1429,-0.1429,2.51,1.1685,1.2,0.5599,2.0,0.6999,True,monoclinic,2/m,14,14.206,2.8857,0.458
B1 In1 La3,3,0.0,0.0,0.0,0.0,0.0,0.6,0.2,0.0,0.6,0.6,3.0,0.94,0.4052,1.1,0.429,6.0,2.4,True,cubic,m-3m,221,30.266,5.9511,1.0
Cl2 Mn1,2,0.0,0.0,0.0,0.0,0.6667,0.0,0.0,0.0,0.0,0.3333,0.0,1.61,0.759,0.4,0.1886,1.0,0.4714,True,trigonal,-3m,166,26.0569,2.6732,1.0
Ga2 N10 Sr12,3,0.0,0.0,0.5,0.0,0.0,0.0,0.0,0.0,0.0,0.0,0.0,2.09,0.9967,1.35,0.644,3.0,1.4337,True,hexagonal,6/mmm,193,21.3374,4.3158,0.5131
Ge2,1,0.0,0.0,0.0,0.0,0.0,0.0,1.0,0.0,0.0,0.0,-4.0,0.0,0.0,0.0,0.0,0.0,0.0,True,tetragonal,4/mmm,141,19.2933,6.252,0.7302
Ag4 B4 F16,3,0.0,0.0,0.0,0.0,0.6667,0.0,0.1667,0.0,0.0,0.1667,0.0,2.05,0.941,1.1,0.4046,3.0,1.118,True,orthorhombic,mmm,62,12.9448,4.1621,0.6673
Eu2 Nd4 Se8,3,0.0,0.0,0.0,0.5714,0.0,0.4286,0.0,0.0,0.4286,0.0,0.0,2.55,0.9531,0.7,0.3464,4.0,1.9795,True,tetragonal,-42m,122,26.0769,6.8799,1.0
Li4 Nb4 O48 P16,4,0.0,0.0556,0.0,0.6667,0.0,0.0,0.0,0.0,0.0,0.0556,-1.6667,2.46,0.7775,0.85,0.2867,3.0,0.7556,True,orthorhombic,mmm,60,14.9216,2.5703,1.339
Hf4 Mo4 Si4,3,0.0,0.0,0.0,0.0,0.0,0.0,0.3333,0.0,0.0,0.6667,1.3333,0.86,0.3601,0.45,0.1929,3.0,1.2472,True,orthorhombic,mmm,62,16.6628,10.0491,0.4274
S16 Sc8 Sr4,3,0.0,0.0,0.1429,0.0,0.0,0.0,0.0,0.0,0.0,0.2857,0.0,1.63,0.6832,1.0,0.3833,2.0,0.7284,True,orthorhombic,mmm,62,21.8983,3.3126,0.2768
As2 Cu2 Li4,3,0.0,0.5,0.0,0.0,0.0,0.0,0.25,0.0,0.0,0.25,0.25,1.2,0.5392,0.3,0.1225,2.0,1.0,True,hexagonal,6/mmm,194,15.101,4.1882,0.5287
Cl38 Li2 Nb12,3,0.0,0.0385,0.0,0.0,0.7308,0.0,0.0,0.0,0.0,0.2308,0.4615,2.18,0.7399,0.45,0.1996,3.0,0.8846,True,orthorhombic,mmm,51,26.3541,3.0001,0.2428
P2 S2 U4,3,0.5,0.0,0.0,0.0,0.0,0.0,0.0,0.0,0.5,0.0,1.75,1.2,0.5211,0.75,0.375,6.0,3.0,True,orthorhombic,mmm,74,20.9135,10.7011,1.1542
I6 Rb4 Zn2,3,0.0,0.3333,0.0,0.0,0.5,0.0,0.0,0.0,0.0,0.1667,0.1667,1.84,0.8292,1.0,0.4541,1.0,0.3727,True,monoclinic,2/m,11,51.8993,3.2905,0.6527
Na4 Ni7 O24 P6,4,0.0,0.0976,0.0,0.5854,0.0,0.0,0.0,0.0,0.0,0.1707,-1.1707,2.51,0.8765,1.2,0.4095,2.0,0.7643,True,monoclinic,m,8,11.6012,3.7447,0.7326
Cu2 O14 Si4 Sr4,4,0.0,0.0,0.1667,0.5833,0.0,0.0,0.1667,0.0,0.0,0.0833,-1.3333,2.49,0.9931,1.4,0.521,3.0,1.1426,True,tetragonal,-42m,113,14.3432,3.9261,0.6229
Cu18 Si8 Sr2,3,0.0,0.0,0.0714,0.0,0.0,0.0,0.2857,0.0,0.0,0.6429,0.2857,0.95,0.2447,0.9,0.2177,2.0,0.5579,True,tetragonal,4/mmm,140,13.8055,6.6316,0.9961
Ge2 Ru2 Sm1,3,0.0,0.0,0.0,0.0,0.0,0.2,0.4,0.0,0.2,0.4,0.2,1.03,0.3835,0.6,0.2311,4.0,1.4697,True,tetragonal,4/mmm,139,18.4058,8.9818,0.7322
V1,1,0.0,0.0,0.0,0.0,0.0,0.0,0.0,0.0,0.0,1.0,5.0,0.0,0.0,0.0,0.0,0.0,0.0,True,cubic,m-3m,225,13.9258,6.0744,1.0
F36 Ga6 Li18,3,0.0,0.3,0.0,0.0,0.6,0.0,0.0,0.0,0.0,0.0,0.0,3.0,1.3868,0.95,0.4489,2.0,0.6,True,monoclinic,2/m,15,10.7713,3.1532,0.8352
O12 Pb4 S4,3,0.0,0.0,0.0,0.6,0.0,0.0,0.0,0.0,0.0,0.0,-1.2,1.11,0.489,1.2,0.4665,4.0,1.5492,True,orthorhombic,mmm,62,15.4938,6.1575,0.6916
B2 Er1 Ir3,3,0.0,0.0,0.0,0.0,0.0,0.1667,0.3333,0.0,0.1667,0.5,3.0,0.96,0.3415,0.9,0.3162,6.0,2.2361,True,orthorhombic,mmm,65,13.5126,15.6791,0.5739
S4 Ta2,2,0.0,0.0,0.0,0.0,0.0,0.0,0.0,0.0,0.0,0.3333,0.3333,1.08,0.5091,0.45,0.2121,3.0,1.4142,True,trigonal,3m,160,21.3864,6.343,1.0
C12 F24 Fe2 O12 Sb4,5,0.0,0.0,0.0,0.2222,0.4444,0.0,0.0741,0.0,0.0,0.037,-1.9259,2.15,0.7282,0.95,0.281,3.0,0.8527,True,tetragonal,4/mmm,128,16.5413,2.5856,0.6623
Ce8 O64 Se16,3,0.0,0.0,0.0,0.9091,0.0,0.0909,0.0,0.0,0.0909,0.0,-1.5455,2.32,0.7031,1.25,0.3891,6.0,1.7814,True,orthorhombic,mmm,61,15.0009,4.2873,0.6683
Ba3 Na2 Nb2 O15 Ti3,5,0.0,0.08,0.12,0.6,0.0,0.0,0.0,0.0,0.0,0.2,0.0,2.55,1.1002,1.55,0.5824,4.0,1.4555,True,orthorhombic,mmm,65,13.0432,5.2318,0.7084
Ag2 In2 Te4,3,0.0,0.0,0.0,0.5,0.0,0.0,0.5,0.0,0.0,0.25,0.0,0.32,0.1335,0.2,0.0893,0.0,0.0,True,tetragonal,-42m,122,35.1163,5.6494,0.827
C14 Lu8,2,0.0,0.0,0.0,0.0,0.0,0.3636,0.0,0.0,0.3636,0.0,-1.4545,1.28,0.6157,1.05,0.5051,4.0,1.9242,True,monoclinic,2/m,14,13.4522,8.7973,0.2664
Br4 C40 H116 N4 P12 Si4,6,0.0,0.0,0.0,0.0,0.0222,0.0,0.0222,0.0,0.0,0.0,-1.9111,1.14,0.2157,0.9,0.2846,3.0,0.749,True,monoclinic,2/m,14,11.2783,1.1918,0.7326
Cu18 Ge8 Sr2,3,0.0,0.0,0.0714,0.0,0.0,0.0,0.2857,0.0,0.0,0.6429,0.2857,1.06,0.2581,0.75,0.1809,1.0,0.2575,True,tetragonal,4/mmm,140,14.7632,7.6332,0.9913
O18 Tl1 W6,3,0.0,0.0,0.0,0.72,0.0,0.0,0.0,0.0,0.0,0.24,-0.44,1.82,0.5497,1.3,0.3857,4.0,1.796,True,trigonal,3m,157,15.1417,6.9985,0.9735
Co2 Cr4 O8,3,0.0,0.0,0.0,0.5714,0.0,0.0,0.0,0.0,0.0,0.4286,0.0,1.78,0.8473,0.8,0.388,2.0,0.9897,True,cubic,m-3m,227,10.9294,4.9253,1.0
B6 Ni3 Yb2,3,0.0,0.0,0.0,0.0,0.0,0.1818,0.5455,0.0,0.1818,0.2727,2.7273,2.04,0.7721,0.9,0.3542,6.0,2.2268,True,orthorhombic,mmm,65,10.3902,8.5288,0.6031
Cu1 F1,2,0.0,0.0,0.0,0.0,0.5,0.0,0.0,0.0,0.0,0.5,0.5,2.08,1.04,0.85,0.425,2.0,1.0,True,cubic,-43m,216,14.2308,4.8159,1.0