formula,numberOfSpecies,fracActinoid,fracAlkali,fracAlkaline,fracChalcogen,fracHalogen,fracLanthanoid,fracMetalloid,fracNobleGas,fracRareEarth,fracTransitionMetal,electronsPerAtom,electronegativityRange,electronegativityStd,radiiRange,radiiStd,rowRange,rowStd,ordered,crystalSystem,pointGroup,spaceGroupNumber,volumePerSite,density,c_a
Hg3 Zr1,2,0.0,0.0,0.0,0.0,0.0,0.0,0.0,0.0,0.0,1.0,1.75,0.67,0.2901,0.05,0.0217,1.0,0.433,True,cubic,m-3m,221,22.1715,12.9755,1.0
Er2 O12 Ru2 Sr4,4,0.0,0.0,0.2,0.6,0.0,0.1,0.0,0.0,0.1,0.1,-0.2,2.49,1.0811,1.4,0.5975,6.0,2.0125,True,monoclinic,2/m,14,13.9282,6.4328,0.7054
Be26 Hf2,2,0.0,0.0,0.9286,0.0,0.0,0.0,0.0,0.0,0.0,0.0714,2.1429,0.27,0.0695,0.5,0.1288,4.0,1.0302,True,cubic,m-3m,226,8.8125,3.9792,1.0
Cu2 Er1 Si2,3,0.0,0.0,0.0,0.0,0.0,0.2,0.4,0.0,0.2,0.4,-0.2,0.66,0.264,0.65,0.2379,5.0,1.8547,True,tetragonal,4/mmm,139,15.5421,7.49,0.6887
Ge4 O36 P4 Pr12,4,0.0,0.0,0.0,0.6429,0.0,0.2143,0.0714,0.0,0.2143,0.0,-1.1429,2.31,0.9643,1.25,0.5088,6.0,2.4128,True,monoclinic,2/m,14,14.2584,5.5762,0.5655
Co2 Dy1 Ge2,3,0.0,0.0,0.0,0.0,0.0,0.2,0.4,0.0,0.2,0.4,-0.2,0.79,0.2958,0.5,0.1855,4.0,1.6,True,tetragonal,4/mmm,139,15.9145,8.8825,0.6847
Bi16 Br8 O20,3,0.0,0.0,0.0,0.4545,0.1818,0.0,0.0,0.0,0.0,0.0,-0.0,1.42,0.6409,1.0,0.4513,4.0,1.7999,True,monoclinic,2,4,21.216,7.6541,0.3878
S3 Sb1 Tl3,3,0.0,0.0,0.0,0.0,0.0,0.0,0.1429,0.0,0.0,0.0,-0.8571,0.96,0.4447,0.9,0.4166,3.0,1.3997,True,trigonal,3m,160,30.2899,6.5089,1.0
Au1 Mn1 Sb1,3,0.0,0.0,0.0,0.0,0.0,0.0,0.3333,0.0,0.0,0.6667,0.6667,0.99,0.4042,0.1,0.0408,2.0,0.8165,True,cubic,-43m,216,22.4682,9.2054,1.0
Cs8 F20 Zn6,3,0.0,0.2353,0.0,0.0,0.5882,0.0,0.0,0.0,0.0,0.1765,0.0,3.19,1.4152,2.1,0.8662,4.0,1.6721,True,orthorhombic,mmm,64,19.3692,4.6286,0.4475
Ag3 As2 O8,3,0.0,0.0,0.0,0.6154,0.0,0.0,0.1538,0.0,0.0,0.2308,-1.4615,1.51,0.6902,1.0,0.4217,3.0,1.3009,True,trigonal,3,146,16.3635,4.6949,1.0
Nd16 O28 Se12 Si8,4,0.0,0.0,0.0,0.625,0.0,0.25,0.125,0.0,0.25,0.0,-1.0,2.3,0.9457,1.25,0.5,6.0,2.4238,True,tetragonal,4/mmm,141,16.8983,6.0312,1.0
Fe6 Ge6 Ti1,3,0.0,0.0,0.0,0.0,0.0,0.0,0.4615,0.0,0.0,0.5385,-0.6154,0.47,0.1332,0.15,0.0748,0.0,0.0,True,hexagonal,6/mmm,191,13.5415,7.7233,0.6243
C1 Ti1,2,0.0,0.0,0.0,0.0,0.0,0.0,0.0,0.0,0.0,0.5,0.0,1.01,0.505,0.7,0.35,2.0,1.0,True,cubic,m-3m,225,10.1876,4.8799,1.0
Ge2 K2 Pr2 Se8,4,0.0,0.1429,0.0,0.5714,0.0,0.1429,0.1429,0.0,0.1429,0.0,-1.1429,1.73,0.6924,1.05,0.3989,4.0,1.3997,True,monoclinic,2,4,31.2555,4.3146,0.7588
As2 S2 U2,3,0.3333,0.0,0.0,0.0,0.0,0.0,0.3333,0.0,0.3333,0.0,0.3333,1.2,0.4989,0.75,0.324,6.0,2.6247,True,tetragonal,4/mmm,129,20.1449,9.4799,0.4748
F16 In4 Li4,3,0.0,0.1667,0.0,0.0,0.6667,0.0,0.0,0.0,0.0,0.0,0.0,3.0,1.2472,1.05,0.4723,3.0,1.118,True,orthorhombic,mmm,60,12.2726,4.4595,0.4034
O2 Pr2 Se1,3,0.0,0.0,0.0,0.6,0.0,0.4,0.0,0.0,0.4,0.0,0.0,2.31,1.0385,1.25,0.5598,6.0,2.7129,True,trigonal,-3m,164,20.2989,6.4261,0.5689
O12 Pb4 Rb8,3,0.0,0.3333,0.0,0.5,0.0,0.0,0.0,0.0,0.0,0.0,-0.3333,2.62,1.1719,1.75,0.8045,4.0,1.6997,True,orthorhombic,mmm,62,21.3947,5.5124,0.5545
In2 Pd4 Tb4,3,0.0,0.0,0.0,0.0,0.0,0.4,0.0,0.0,0.4,0.4,2.6,2.2,1.0208,0.35,0.1568,3.0,1.4697,True,tetragonal,4/mmm,127,22.5746,9.4964,0.4836
Al12 O24 Sr6,3,0.0,0.0,0.1429,0.5714,0.0,0.0,0.0,0.0,0.0,0.0,0.0,2.49,1.0347,1.4,0.5019,3.0,1.0302,True,hexagonal,6,173,14.2023,3.4338,1.0588
Na20 Sn12 Tl4,3,0.0,0.5556,0.0,0.0,0.0,0.0,0.0,0.0,0.0,0.0,-0.6667,1.03,0.4797,0.45,0.1755,3.0,1.1547,True,monoclinic,2/m,14,30.9897,4.0215,0.5285
Cl16 Co4 Rb8,3,0.0,0.2857,0.0,0.0,0.5714,0.0,0.0,0.0,0.0,0.1429,0.0,2.34,1.0361,1.35,0.5902,2.0,0.8806,True,orthorhombic,mmm,62,32.2975,2.7299,0.5634
I12 La12 Sb4,3,0.0,0.0,0.0,0.0,0.4286,0.4286,0.1429,0.0,0.4286,0.4286,0.4286,1.56,0.7246,0.55,0.2665,3.0,1.4846,True,cubic,432,214,38.9243,5.6019,1.0
Li6 O24 P6 Sn6,4,0.0,0.1429,0.0,0.5714,0.0,0.0,0.0,0.0,0.0,0.0,-2.0,2.46,0.9225,0.85,0.3732,3.0,1.0498,True,monoclinic,m,9,13.414,3.9016,0.7746
C8 Co2 N12,3,0.0,0.0,0.0,0.0,0.0,0.0,0.0,0.0,0.0,0.0909,-2.9091,1.16,0.3594,0.7,0.1969,2.0,0.575,True,orthorhombic,mmm,58,14.5006,1.9886,0.828
Sb1 Tm1,2,0.0,0.0,0.0,0.0,0.0,0.5,0.5,0.0,0.5,0.0,0.0,0.8,0.4,0.3,0.15,3.0,1.5,True,cubic,m-3m,225,28.8933,8.3533,1.0
Fe2 Nd1 Si2,3,0.0,0.0,0.0,0.0,0.0,0.2,0.4,0.0,0.2,0.4,-0.2,0.76,0.2917,0.75,0.275,5.0,1.8547,True,tetragonal,4/mmm,139,15.7944,6.5626,0.7119
Se4 Sn4,2,0.0,0.0,0.0,0.5,0.0,0.0,0.0,0.0,0.0,0.0,-3.0,0.59,0.295,0.3,0.15,1.0,0.5,True,orthorhombic,mmm,62,28.1314,5.834,0.3579
Dy1,1,0.0,0.0,0.0,0.0,0.0,1.0,0.0,0.0,1.0,0.0,3.0,0.0,0.0,0.0,0.0,0.0,0.0,True,cubic,m-3m,229,32.0309,8.4243,1.0
Ca12 Cd8,2,0.0,0.0,0.6,0.0,0.0,0.0,0.0,0.0,0.0,0.4,2.0,0.69,0.338,0.25,0.1225,1.0,0.4899,True,tetragonal,4mm,102,31.6519,3.6205,0.8968
Bi2 O24 P8,3,0.0,0.0,0.0,0.7059,0.0,0.0,0.0,0.0,0.0,0.0,-1.9412,1.42,0.5862,1.0,0.2703,4.0,0.9772,True,monoclinic,2/m,12,16.1706,3.1705,0.4766
K4 O8 W2,3,0.0,0.2857,0.0,0.5714,0.0,0.0,0.0,0.0,0.0,0.1429,-0.2857,2.62,1.1457,1.6,0.7024,4.0,1.4569,True,monoclinic,2/m,12,19.5716,3.9517,0.8172
F12 Na4 Nb2,3,0.0,0.2222,0.0,0.0,0.6667,0.0,0.0,0.0,0.0,0.1111,0.1111,3.05,1.3449,1.3,0.5659,3.0,0.9558,True,tetragonal,4/mmm,136,15.2507,3.0593,0.4895
Cu4 S8 Y4,3,0.0,0.0,0.0,0.0,0.0,0.0,0.0,0.0,0.0,0.5,0.25,1.36,0.5638,0.8,0.3286,2.0,0.8292,True,orthorhombic,mmm,62,20.9271,4.2964,0.2937
Ni8 P32 V2,3,0.0,0.0,0.0,0.0,0.0,0.0,0.0,0.0,0.0,0.2381,-1.6667,0.56,0.1532,0.35,0.1491,1.0,0.4259,True,monoclinic,2/m,15,14.3757,4.2975,0.5105
B2 Er1 Ru3,3,0.0,0.0,0.0,0.0,0.0,0.1667,0.3333,0.0,0.1667,0.5,3.0,0.96,0.3415,0.9,0.3092,6.0,2.0616,True,hexagonal,6/mmm,191,13.2174,10.3038,1.8103
As2 Br6 F12,3,0.0,0.0,0.0,0.0,0.9,0.0,0.1,0.0,0.0,0.0,-1.2,1.8,0.6324,0.65,0.3184,2.0,0.9798,True,triclinic,-1,2,22.2903,3.1931,0.5811
Ga4 Yb1,2,0.0,0.0,0.0,0.0,0.0,0.2,0.0,0.0,0.2,0.0,3.0,1.81,0.724,0.45,0.18,4.0,1.6,True,tetragonal,4/mmm,139,20.1985,7.4307,0.7039
Ag4 Cl4 O12,3,0.0,0.0,0.0,0.6,0.2,0.0,0.0,0.0,0.0,0.2,-1.2,1.51,0.5861,1.0,0.3919,3.0,1.1662,True,tetragonal,4/m,87,15.3681,4.1344,1.0
Eu1 N1,2,0.0,0.0,0.0,0.0,0.0,0.5,0.0,0.0,0.5,0.0,-0.5,3.04,1.52,1.2,0.6,6.0,3.0,True,cubic,m-3m,225,16.3766,8.4145,1.0
Al20 Eu12 O48,3,0.0,0.0,0.0,0.6,0.0,0.15,0.0,0.0,0.15,0.0,-0.15,3.44,1.2902,1.25,0.4664,6.0,2.0803,True,cubic,m-3m,230,11.5668,5.6189,1.0
Cu2 Ge10 O28 Pb6,4,0.0,0.0,0.0,0.6087,0.0,0.0,0.2174,0.0,0.0,0.0435,-1.7391,1.54,0.6597,1.2,0.4415,4.0,1.4288,True,monoclinic,2/m,15,14.2821,6.4318,0.8139
Al2 F14 Mg2 Na4,4,0.0,0.1818,0.0909,0.0,0.6364,0.0,0.0,0.0,0.0,0.0,0.0,3.05,1.3507,1.3,0.5412,1.0,0.481,True,orthorhombic,mm2,46,12.2363,2.8406,0.9889
Ag4 Sc24 Te8,3,0.0,0.0,0.0,0.2222,0.0,0.0,0.2222,0.0,0.0,0.7778,1.6667,0.74,0.3254,0.2,0.0831,1.0,0.4714,True,orthorhombic,mmm,62,23.7243,4.9213,0.1886
Na8 P8,2,0.0,0.5,0.0,0.0,0.0,0.0,0.0,0.0,0.0,0.0,-1.0,1.26,0.63,0.8,0.4,0.0,0.0,True,orthorhombic,222,19,21.8291,2.0525,0.5581
Ag28 Nb4 S24,3,0.0,0.0,0.0,0.0,0.0,0.0,0.0,0.0,0.0,0.5714,0.0,0.98,0.3519,0.6,0.2901,2.0,0.9897,True,monoclinic,m,7,22.5885,5.4629,0.519
C6 Cu1 Fe1 Li2 N6,5,0.0,0.125,0.0,0.0,0.0,0.0,0.0,0.0,0.0,0.125,-2.25,2.06,0.6688,0.8,0.3208,2.0,0.6614,True,cubic,m-3m,225,16.7645,1.7914,1.0
As2 O8 Tb2,3,0.0,0.0,0.0,0.6667,0.0,0.1667,0.1667,0.0,0.1667,0.0,-1.3333,3.44,1.2741,1.15,0.4365,6.0,2.2111,True,tetragonal,4/mmm,141,13.7196,6.0082,1.0
Dy1 Rh3 Si2,3,0.0,0.0,0.0,0.0,0.0,0.1667,0.3333,0.0,0.1667,0.5,0.6667,1.06,0.3787,0.65,0.2173,5.0,1.675,True,hexagonal,6/mmm,191,16.2291,8.9936,1.4991
Ga2 Se4 Zn1,3,0.0,0.0,0.0,0.5714,0.0,0.0,0.0,0.0,0.0,0.1429,0.0,0.9,0.3957,0.2,0.0839,0.0,0.0,True,triclinic,1,1,25.0862,4.9238,0.8287
Dy1 Tl1,2,0.0,0.0,0.0,0.0,0.0,0.5,0.0,0.0,0.5,0.0,2.0,0.4,0.2,0.15,0.075,2.0,1.0,True,cubic,m-3m,221,27.4929,11.0796,1.0
Ba4 Cd4 O28 V8,4,0.0,0.0,0.0909,0.6364,0.0,0.0,0.0,0.0,0.0,0.2727,0.0,2.55,0.973,1.55,0.5201,4.0,1.4142,True,orthorhombic,mmm,62,15.7737,4.4369,0.3703
K4 Ni2 P4,3,0.0,0.4,0.0,0.0,0.0,0.0,0.0,0.0,0.0,0.2,-0.4,1.37,0.6337,1.2,0.5459,1.0,0.4899,True,orthorhombic,mmm,63,24.9111,2.6508,0.7362
Mn7 Na1 O12,3,0.0,0.05,0.0,0.6,0.0,0.0,0.0,0.0,0.0,0.35,-0.45,2.51,0.9726,1.2,0.4247,2.0,0.9421,True,cubic,m-3,204,10.3287,4.8194,1.0
Cu4 Na2 Nb2 S8,4,0.0,0.125,0.0,0.0,0.0,0.0,0.0,0.0,0.0,0.375,0.25,1.65,0.572,0.8,0.2766,2.0,0.7071,True,orthorhombic,mm2,40,24.4254,3.1549,0.5813
Ce1 Ga2,2,0.0,0.0,0.0,0.0,0.0,0.3333,0.0,0.0,0.3333,0.0,3.0,0.69,0.3253,0.55,0.2593,4.0,1.8856,True,hexagonal,6/mmm,191,22.1172,6.9964,1.0231
As4 Cu2 U2,3,0.25,0.0,0.0,0.0,0.0,0.0,0.5,0.0,0.25,0.25,0.5,0.8,0.3266,0.6,0.2449,5.0,2.1651,True,tetragonal,4/mmm,129,18.7753,9.9811,0.4113
Mn3 N1 Pt1,3,0.0,0.0,0.0,0.0,0.0,0.0,0.0,0.0,0.0,0.8,1.0,1.49,0.5945,0.75,0.2956,4.0,1.2649,True,cubic,m-3m,221,12.2791,10.1129,1.0
Fe4 O8 Zn2,3,0.0,0.0,0.0,0.5714,0.0,0.0,0.0,0.0,0.0,0.4286,-0.2857,1.79,0.8283,0.8,0.388,2.0,0.9897,True,cubic,m-3m,227,11.1526,5.1282,1.0
O8 Ti4,2,0.0,0.0,0.0,0.6667,0.0,0.0,0.0,0.0,0.0,0.3333,0.0,1.9,0.8957,0.8,0.3771,2.0,0.9428,True,cubic,m-3m,227,12.5179,3.5315,1.0
Cr4 Li6 O24 P6,4,0.0,0.15,0.0,0.6,0.0,0.0,0.0,0.0,0.0,0.1,-1.2,2.46,0.9589,0.85,0.3533,2.0,0.6538,True,monoclinic,2/m,15,10.5899,3.2124,1.3375
Cl4 O1 W1,3,0.0,0.0,0.0,0.1667,0.6667,0.0,0.0,0.0,0.0,0.1667,-0.3333,1.08,0.335,0.75,0.2168,4.0,1.2472,True,tetragonal,4,79,28.6712,3.2979,0.5608
Er8 S12,2,0.0,0.0,0.0,0.0,0.0,0.4,0.0,0.0,0.4,0.0,0.0,1.34,0.6565,0.75,0.3674,5.0,2.4495,True,monoclinic,2/m,11,22.6829,6.3062,0.3488
Mg4 Si4 Sr4,3,0.0,0.0,0.6667,0.0,0.0,0.0,0.3333,0.0,0.0,0.0,0.0,0.95,0.3916,0.9,0.3682,2.0,0.9428,True,orthorhombic,mmm,62,25.5606,3.0319,0.5388
Mo6 O16 Sc2 Zn2,4,0.0,0.0,0.0,0.6154,0.0,0.0,0.0,0.0,0.0,0.3846,0.0769,2.08,0.7782,1.0,0.4213,3.0,1.3009,True,hexagonal,6mm,186,11.7989,5.6964,0.5783
Be8 Na16 O32 Si8,4,0.0,0.25,0.125,0.5,0.0,0.0,0.125,0.0,0.0,0.0,-1.0,2.51,1.0946,1.2,0.4911,1.0,0.4841,True,orthorhombic,mm2,29,10.822,2.8209,0.3544
H1 Li1,2,0.0,0.5,0.0,0.0,0.0,0.0,0.0,0.0,0.0,0.0,0.0,1.22,0.61,1.2,0.6,1.0,0.5,True,cubic,m-3m,225,8.1039,0.8144,1.0
Ce2 K2 S8 Si2,4,0.0,0.1429,0.0,0.0,0.0,0.1429,0.1429,0.0,0.1429,0.0,-1.1429,1.76,0.709,1.2,0.4648,5.0,1.7261,True,monoclinic,2/m,11,26.2361,3.034,0.7444
Al8 Zr12,2,0.0,0.0,0.0,0.0,0.0,0.0,0.0,0.0,0.0,0.6,3.6,0.28,0.1372,0.3,0.147,2.0,0.9798,True,tetragonal,4/mmm,136,20.5885,5.285,0.9073
Ca6 Mn2 O12 Zn2,4,0.0,0.0,0.2727,0.5455,0.0,0.0,0.0,0.0,0.0,0.1818,-0.1818,2.44,1.1134,1.2,0.5318,2.0,0.9959,True,trigonal,-3m,167,12.0039,4.2327,1.0
Cl8 H32 Mn4 O16,4,0.0,0.0,0.0,0.2667,0.1333,0.0,0.0,0.0,0.0,0.0667,-1.0667,1.89,0.6234,1.15,0.3506,3.0,0.9286,True,monoclinic,2/m,14,10.9751,1.9962,0.554
Al12 Fe6 O24,3,0.0,0.0,0.0,0.5714,0.0,0.0,0.0,0.0,0.0,0.1429,0.0,1.83,0.872,0.8,0.3495,2.0,0.7284,True,triclinic,1,1,10.0089,4.1194,0.3318
Cu4 O28 P8 Sr4,4,0.0,0.0,0.0909,0.6364,0.0,0.0,0.0,0.0,0.0,0.0909,-1.4545,2.49,0.8432,1.4,0.4318,3.0,0.9791,True,monoclinic,2/m,14,12.9255,3.797,0.4366
Se4 Ta2,2,0.0,0.0,0.0,0.6667,0.0,0.0,0.0,0.0,0.0,0.3333,0.3333,1.05,0.495,0.3,0.1414,2.0,0.9428,True,trigonal,3m,160,23.9637,7.8272,1.0
O13 V6,2,0.0,0.0,0.0,0.6842,0.0,0.0,0.0,0.0,0.0,0.3158,0.2105,1.81,0.8413,0.75,0.3486,2.0,0.9297,True,monoclinic,2/m,12,12.1463,3.6958,0.6159
Ag8 Cl8 H16 O40,4,0.0,0.0,0.0,0.5556,0.1111,0.0,0.0,0.0,0.0,0.1111,-1.3333,1.51,0.6153,1.35,0.3874,4.0,1.1331,True,orthorhombic,mmm,61,12.5236,3.3197,0.5855
Nd4 O12 Rh4,3,0.0,0.0,0.0,0.6,0.0,0.2,0.0,0.0,0.2,0.2,0.0,2.3,0.921,1.25,0.5148,6.0,2.4,True,orthorhombic,mmm,62,12.5416,7.8156,0.6894
Ge2 La1 Ru2,3,0.0,0.0,0.0,0.0,0.0,0.2,0.4,0.0,0.2,0.6,0.2,1.1,0.4109,0.7,0.2709,4.0,1.4697,True,tetragonal,4/mmm,139,19.107,8.453,0.7282
Ba12 O28 Pt8,3,0.0,0.0,0.25,0.5833,0.0,0.0,0.0,0.0,0.0,0.1667,-0.3333,2.55,1.0769,1.55,0.6571,4.0,1.972,True,monoclinic,m,9,16.8741,7.4965,1.157
Ge3 La1 Rh1,3,0.0,0.0,0.0,0.0,0.0,0.2,0.6,0.0,0.2,0.4,-1.2,1.18,0.4047,0.7,0.2728,4.0,1.5492,True,tetragonal,4mm,107,20.2945,7.5232,0.7438
Br2 La2,2,0.0,0.0,0.0,0.0,0.5,0.5,0.0,0.0,0.5,0.5,1.0,1.86,0.93,0.8,0.4,4.0,2.0,True,trigonal,-3m,166,39.3124,4.6212,1.0
Ca1 Ge2 Ru2,3,0.0,0.0,0.2,0.0,0.0,0.0,0.4,0.0,0.0,0.4,0.0,1.2,0.4501,0.55,0.2112,1.0,0.4899,True,tetragonal,4/mmm,139,18.5025,6.9553,0.731
Pd1 Sn3 Sr1,3,0.0,0.0,0.2,0.0,0.0,0.0,0.0,0.0,0.0,0.2,-1.6,1.25,0.438,0.6,0.2258,0.0,0.0,True,tetragonal,4mm,107,27.1327,6.7341,0.7347
Ba2 Lu1 O6 Ru1,4,0.0,0.0,0.2,0.6,0.0,0.1,0.0,0.0,0.1,0.1,-0.2,2.55,1.0959,1.55,0.6455,4.0,1.8574,True,cubic,m-3m,225,14.5852,7.3626,1.0
H2 Mn1 O2,3,0.0,0.0,0.0,0.4,0.0,0.0,0.0,0.0,0.0,0.2,-0.8,1.89,0.7521,1.15,0.4202,3.0,1.0954,True,trigonal,-3m,164,9.3204,3.1696,0.713
Ca2 O6 Sn2,3,0.0,0.0,0.2,0.6,0.0,0.0,0.0,0.0,0.0,0.0,-1.6,2.44,1.007,1.2,0.5142,3.0,1.2649,True,trigonal,-3,148,13.8728,4.9503,1.0
Cl12 In2 Na6,3,0.0,0.3,0.0,0.0,0.6,0.0,0.0,0.0,0.0,0.0,0.0,2.23,1.0154,0.8,0.3677,2.0,0.6,True,trigonal,-3m,163,26.7721,2.4593,0.5561
Fe6 S8,2,0.0,0.0,0.0,0.0,0.0,0.0,0.0,0.0,0.0,0.4286,-0.2857,0.75,0.3712,0.4,0.1979,1.0,0.4949,True,cubic,m-3m,227,15.2285,4.6077,1.0
Cl6 H8 N2 Pt1,4,0.0,0.0,0.0,0.0,0.3529,0.0,0.0,0.0,0.0,0.0588,-1.0588,0.96,0.4615,1.1,0.3831,5.0,1.3232,True,cubic,m-3m,225,14.7595,2.9376,1.0
Ba1 Fe1 O3,3,0.0,0.0,0.2,0.6,0.0,0.0,0.0,0.0,0.0,0.2,-0.4,2.55,1.0615,1.55,0.6226,4.0,1.6,True,cubic,m-3m,221,13.1384,6.0962,1.0
N3 Ta1 Th1,3,0.2,0.0,0.0,0.0,0.0,0.0,0.0,0.0,0.2,0.2,0.0,1.74,0.8059,1.15,0.4903,7.0,2.8566,True,cubic,m-3m,221,13.4286,11.2529,1.0
Ce1 Na2 O3,3,0.0,0.3333,0.0,0.5,0.0,0.1667,0.0,0.0,0.1667,0.0,-0.1667,2.51,1.225,1.25,0.6086,6.0,2.1344,True,tetragonal,4/mmm,123,14.25,4.5465,0.7899
Ba4 Co4 Lu8 O20,4,0.0,0.0,0.1111,0.5556,0.0,0.2222,0.0,0.0,0.2222,0.1111,-0.0,2.55,1.076,1.55,0.6017,4.0,1.8325,True,orthorhombic,mmm,62,13.4225,8.6076,0.4663
K18 O42 Si12 Tb6,4,0.0,0.2308,0.0,0.5385,0.0,0.0769,0.1538,0.0,0.0769,0.0,-1.2308,3.44,1.2789,1.6,0.6672,6.0,1.639,True,hexagonal,6/mmm,193,16.0895,3.528,0.6873
K2 O3 Sn2,3,0.0,0.2857,0.0,0.4286,0.0,0.0,0.0,0.0,0.0,0.0,-1.7143,2.62,1.1022,1.6,0.6692,3.0,1.2936,True,trigonal,-3m,166,22.4559,3.8412,1.0
Li1 Pb1,2,0.0,0.5,0.0,0.0,0.0,0.0,0.0,0.0,0.0,0.0,1.5,1.35,0.675,0.35,0.175,4.0,2.0,True,cubic,m-3m,221,22.7086,7.8294,1.0
Ba1 Ir1 O3,3,0.0,0.0,0.2,0.6,0.0,0.0,0.0,0.0,0.0,0.2,-0.2,2.55,1.0166,1.55,0.6176,4.0,1.9596,True,cubic,m-3m,221,13.5225,9.2723,1.0
Br2 F8 Rb2,3,0.0,0.1667,0.0,0.0,0.8333,0.0,0.0,0.0,0.0,0.0,-0.6667,3.16,1.1629,1.85,0.6835,3.0,1.2134,True,tetragonal,4/mmm,140,23.7113,2.8172,0.9512
Nd2 Te4,2,0.0,0.0,0.0,0.6667,0.0,0.3333,0.6667,0.0,0.3333,0.0,-0.3333,0.96,0.4525,0.45,0.2121,3.0,1.4142,True,tetragonal,4/mmm,129,31.1291,7.1026,0.4906
Cr1 Te2 Tl1,3,0.0,0.0,0.0,0.5,0.0,0.0,0.5,0.0,0.0,0.25,0.0,0.48,0.2304,0.5,0.2165,2.0,0.7071,True,trigonal,-3m,164,29.2734,7.2549,0.5178
Cl8 F64 Ru8,3,0.0,0.0,0.0,0.0,0.9,0.0,0.0,0.0,0.0,0.1,-0.6,1.78,0.5626,0.8,0.2685,3.0,0.9165,True,orthorhombic,mmm,54,16.0359,2.9876,0.2917
Fe20 O48 Sm12,3,0.0,0.0,0.0,0.6,0.0,0.15,0.0,0.0,0.15,0.25,-0.25,2.27,0.9322,1.25,0.4942,6.0,2.1071,True,cubic,m-3m,230,12.7794,5.9921,1.0
Bi2 O3,2,0.0,0.0,0.0,0.6,0.0,0.0,0.0,0.0,0.0,0.0,0.0,1.42,0.6957,1.0,0.4899,4.0,1.9596,True,monoclinic,m,6,18.3888,8.4154,0.5898
Na1 O8 Rb3 Ru2,4,0.0,0.2857,0.0,0.5714,0.0,0.0,0.0,0.0,0.0,0.1429,-0.4286,2.62,1.1394,1.75,0.7174,3.0,1.407,True,trigonal,-3m,164,19.2229,3.7609,0.7697
Al4 Ti2,2,0.0,0.0,0.0,0.0,0.0,0.0,0.0,0.0,0.0,0.3333,3.3333,0.07,0.033,0.15,0.0707,1.0,0.4714,True,orthorhombic,mmm,65,15.9486,3.5341,0.6154
La1,1,0.0,0.0,0.0,0.0,0.0,1.0,0.0,0.0,1.0,1.0,3.0,0.0,0.0,0.0,0.0,0.0,0.0,True,cubic,m-3m,229,37.6727,6.1227,1.0
Ca4 O12 Sn4,3,0.0,0.0,0.2,0.6,0.0,0.0,0.0,0.0,0.0,0.0,-1.6,2.44,1.007,1.2,0.5142,3.0,1.2649,True,orthorhombic,mmm,62,12.8572,5.3414,0.6978
Ba2 Cu3 O7 Y1,4,0.0,0.0,0.1538,0.5385,0.0,0.0,0.0,0.0,0.0,0.3077,-0.0769,2.55,1.0408,1.55,0.5969,4.0,1.5385,True,orthorhombic,mmm,47,13.7289,6.1983,0.3252
Sr4 Zn4,2,0.0,0.0,0.5,0.0,0.0,0.0,0.0,0.0,0.0,0.5,2.0,0.7,0.35,0.65,0.325,1.0,0.5,True,orthorhombic,mmm,62,32.1646,3.9502,0.5068
Al6 Ca4 O16 S1,4,0.0,0.0,0.1481,0.5926,0.0,0.0,0.0,0.0,0.0,0.0,-0.2963,2.44,1.0068,1.2,0.4467,2.0,0.737,True,cubic,-43m,217,14.3066,2.6234,1.0
Ca16 O36 P8,3,0.0,0.0,0.2667,0.6,0.0,0.0,0.0,0.0,0.0,0.0,-1.0667,2.44,1.062,1.2,0.5157,2.0,0.8692,True,monoclinic,2,4,13.6222,2.9764,0.5841
Cs2 F6 Sn1,3,0.0,0.2222,0.0,0.0,0.6667,0.0,0.0,0.0,0.0,0.0,-0.8889,3.19,1.3578,2.1,0.8677,4.0,1.7498,True,trigonal,-3m,164,20.6937,4.4447,1.2456
Au2 Ti6,2,0.0,0.0,0.0,0.0,0.0,0.0,0.0,0.0,0.0,1.0,3.75,1.0,0.433,0.05,0.0217,2.0,0.866,True,cubic,m-3m,223,16.7112,8.4603,1.0
Ag1 Gd1 Mg2,3,0.0,0.0,0.5,0.0,0.0,0.25,0.0,0.0,0.25,0.25,2.0,0.73,0.2879,0.3,0.1225,5.0,2.0463,True,cubic,m-3m,225,23.1532,5.6251,1.0
O44 P8 W8,3,0.0,0.0,0.0,0.7333,0.0,0.0,0.0,0.0,0.0,0.1333,-1.3333,1.25,0.517,0.75,0.2699,4.0,1.3499,True,orthorhombic,mmm,62,14.0028,4.7879,0.3948
Ba5 O15 V5,3,0.0,0.0,0.2,0.6,0.0,0.0,0.0,0.0,0.0,0.2,0.2,2.55,1.0933,1.55,0.6176,4.0,1.6,True,trigonal,-3m,164,13.5781,5.7789,0.4921
Pd6 Se16 Ta4,3,0.0,0.0,0.0,0.6154,0.0,0.0,0.0,0.0,0.0,0.3846,0.0,1.05,0.3731,0.3,0.1322,2.0,0.7458,True,orthorhombic,mmm,55,24.3409,6.8894,0.2308
As8 Hg16 O28,3,0.0,0.0,0.0,0.5385,0.0,0.0,0.1538,0.0,0.0,0.3077,-1.2308,1.44,0.6904,0.9,0.4063,4.0,1.7809,True,orthorhombic,mmm,62,18.6004,7.3081,0.6039
As6 In4 Na6 O24,4,0.0,0.15,0.0,0.6,0.0,0.0,0.15,0.0,0.0,0.0,-1.2,2.51,0.9611,1.2,0.4731,3.0,1.0428,True,monoclinic,2/m,15,13.7025,4.3346,0.7514
I12 Tl4,2,0.0,0.0,0.0,0.0,0.75,0.0,0.0,0.0,0.0,0.0,-0.5,1.04,0.4503,0.5,0.2165,1.0,0.433,True,orthorhombic,mmm,62,43.7598,5.5506,0.6284
Al1 C1 Sm3,3,0.0,0.0,0.0,0.0,0.0,0.6,0.0,0.0,0.6,0.0,1.6,1.38,0.5358,1.15,0.4626,6.0,2.7129,True,cubic,m-3m,221,25.3681,6.4158,1.0
O8 Si4,2,0.0,0.0,0.0,0.6667,0.0,0.0,0.3333,0.0,0.0,0.0,-2.6667,1.54,0.726,0.5,0.2357,1.0,0.4714,True,tetragonal,422,92,15.2742,2.1774,0.7163
O2 Rb1,2,0.0,0.3333,0.0,0.6667,0.0,0.0,0.0,0.0,0.0,0.0,-1.0,2.62,1.2351,1.75,0.825,3.0,1.4142,True,tetragonal,4/mmm,139,20.6795,3.1441,0.9103
Ga4 Mg2 O8,3,0.0,0.0,0.1429,0.5714,0.0,0.0,0.0,0.0,0.0,0.0,0.0,2.13,0.9024,0.9,0.3844,2.0,0.8806,True,cubic,m-3m,227,10.8,5.0025,1.0
Ca4 Ir4 Si2,3,0.0,0.0,0.4,0.0,0.0,0.0,0.2,0.0,0.0,0.4,1.2,1.2,0.5499,0.7,0.2768,3.0,1.2,True,monoclinic,2/m,15,20.6295,7.9314,0.7759
Nd4 Te8 U2,3,0.1429,0.0,0.0,0.5714,0.0,0.2857,0.5714,0.0,0.4286,0.0,0.5714,0.96,0.4417,0.45,0.2085,4.0,1.6782,True,tetragonal,-42m,122,30.3827,8.0959,1.0
Ba3 Cu6 Ge3 Se12,4,0.0,0.0,0.125,0.5,0.0,0.0,0.125,0.0,0.0,0.25,-0.75,1.66,0.5432,1.0,0.318,2.0,0.6614,True,trigonal,3,144,25.7637,5.2601,0.4022
Fe2 O8 S2,3,0.0,0.0,0.0,0.6667,0.0,0.0,0.0,0.0,0.0,0.1667,-1.3333,1.61,0.6211,0.8,0.3055,2.0,0.7638,True,orthorhombic,mmm,63,12.1094,3.4718,0.7215
N16 Zn24,2,0.0,0.0,0.0,0.0,0.0,0.0,0.0,0.0,0.0,0.6,-0.0,1.39,0.681,0.7,0.3429,2.0,0.9798,True,cubic,m-3,206,11.9804,6.2162,1.0
Ge1 Mn3,2,0.0,0.0,0.0,0.0,0.0,0.0,0.25,0.0,0.0,0.75,0.5,0.46,0.1992,0.15,0.065,0.0,0.0,True,cubic,m-3m,221,12.1718,8.0987,1.0
O28 Si8 Sm8,3,0.0,0.0,0.0,0.6364,0.0,0.1818,0.1818,0.0,0.1818,0.0,-1.4545,2.27,0.9425,1.25,0.4778,6.0,2.26,True,triclinic,-1,2,13.9892,5.0598,0.4186
Ba4 C6 F2 La2 O18,5,0.0,0.0,0.125,0.5625,0.0625,0.0625,0.0,0.0,0.0625,0.0625,-1.5,3.09,0.9818,1.65,0.5764,6.0,1.8666,True,monoclinic,2/m,11,14.1753,4.485,0.3884
Mn4 O16 Sb8,3,0.0,0.0,0.0,0.5714,0.0,0.0,0.2857,0.0,0.0,0.1429,-1.7143,1.89,0.7857,0.85,0.4127,3.0,1.3553,True,tetragonal,4/mmm,135,17.3234,4.9633,0.6967
Al2 C2 Zr4,3,0.0,0.0,0.0,0.0,0.0,0.0,0.0,0.0,0.0,0.5,1.75,1.22,0.5011,0.85,0.3471,3.0,1.299,True,hexagonal,6/mmm,194,17.5469,5.239,0.2279
Pd3 Tb3 Tl3,3,0.0,0.0,0.0,0.0,0.0,0.3333,0.0,0.0,0.3333,0.3333,2.0,2.2,0.931,0.5,0.2095,3.0,1.2472,True,hexagonal,-6m2,189,22.8027,11.4022,2.0752
F4 Ge1,2,0.0,0.0,0.0,0.0,0.8,0.0,0.2,0.0,0.0,0.0,-1.6,1.97,0.788,0.75,0.3,2.0,0.8,True,cubic,-43m,217,18.1214,2.724,1.0
Ag2 Cs4 S8 V2,4,0.0,0.25,0.0,0.0,0.0,0.0,0.0,0.0,0.0,0.25,0.0,1.79,0.7399,1.6,0.6567,3.0,1.2686,True,orthorhombic,mmm,70,32.8452,3.494,0.4603
Ce4 Ni10 Zn4,3,0.0,0.0,0.0,0.0,0.0,0.2222,0.0,0.0,0.2222,0.7778,2.2222,0.79,0.3151,0.5,0.2079,4.0,1.663,True,trigonal,-3m,166,15.1674,8.5701,1.0
In2 Nd4 Pd4,3,0.0,0.0,0.0,0.0,0.0,0.4,0.0,0.0,0.4,0.4,2.6,1.06,0.4761,0.45,0.2035,3.0,1.4697,True,tetragonal,4/mmm,127,24.1269,8.4812,0.4936