formula,numberOfSpecies,fracActinoid,fracAlkali,fracAlkaline,fracChalcogen,fracHalogen,fracLanthanoid,fracMetalloid,fracNobleGas,fracRareEarth,fracTransitionMetal,electronsPerAtom,electronegativityRange,electronegativityStd,radiiRange,radiiStd,rowRange,rowStd,ordered,crystalSystem,pointGroup,spaceGroupNumber,volumePerSite,density,c_a
Cs4 P6,2,0.0,0.4,0.0,0.0,0.0,0.0,0.0,0.0,0.0,0.0,-1.4,1.4,0.6859,1.6,0.7838,3.0,1.4697,True,orthorhombic,mmm,69,37.304,3.1937,0.7723
Co17 Nd2,2,0.0,0.0,0.0,0.0,0.0,0.1053,0.0,0.0,0.1053,0.8947,2.1053,0.74,0.2271,0.5,0.1534,4.0,1.2276,True,trigonal,-3m,166,13.0209,8.6609,1.0
Li2 S4 Y2,3,0.0,0.25,0.0,0.0,0.0,0.0,0.0,0.0,0.0,0.25,0.0,1.6,0.7448,0.8,0.3361,3.0,1.0897,True,monoclinic,2/m,12,20.6697,3.213,1.1381
Pt6 Si2,2,0.0,0.0,0.0,0.0,0.0,0.0,0.25,0.0,0.0,0.75,0.5,0.38,0.1645,0.25,0.1083,3.0,1.299,True,monoclinic,2/m,12,15.2297,16.7185,0.9827
Ca1 F3 Rb1,3,0.0,0.2,0.2,0.0,0.6,0.0,0.0,0.0,0.0,0.0,0.0,3.16,1.5051,1.85,0.7909,3.0,1.2649,True,cubic,m-3m,221,18.434,3.2887,1.0
Cl2 Cr2 O2,3,0.0,0.0,0.0,0.3333,0.3333,0.0,0.0,0.0,0.0,0.3333,0.0,1.78,0.7815,0.8,0.3266,2.0,0.8165,True,orthorhombic,mmm,59,17.119,3.3448,0.405
Cl8 S20 Sb16,3,0.0,0.0,0.0,0.0,0.1818,0.0,0.3636,0.0,0.0,0.0,-2.1818,1.11,0.3946,0.45,0.2165,2.0,0.9621,True,orthorhombic,mmm,62,29.3813,3.6904,0.7932
In2 P4 Se12 Tl2,4,0.0,0.0,0.0,0.6,0.0,0.0,0.0,0.0,0.0,0.0,-1.4,0.93,0.3364,0.9,0.2637,3.0,0.8307,True,triclinic,-1,2,29.8413,4.7572,0.5324
S8 Sm4 Sr2,3,0.0,0.0,0.1429,0.0,0.0,0.2857,0.0,0.0,0.2857,0.0,0.0,1.63,0.7372,1.0,0.4478,5.0,2.1853,True,tetragonal,-42m,122,22.9309,5.3442,1.0
Au6 P14 Sn2,3,0.0,0.0,0.0,0.0,0.0,0.0,0.0,0.0,0.0,0.2727,-1.4545,0.58,0.1807,0.45,0.1823,3.0,1.3484,True,monoclinic,2/m,11,19.9834,6.9984,0.5734
C1 Nb2 S2,3,0.0,0.0,0.0,0.0,0.0,0.0,0.0,0.0,0.0,0.4,0.4,0.98,0.4753,0.75,0.2909,3.0,1.2,True,trigonal,-3m,164,17.4896,4.9742,0.3527
Co1 Mn2 Si1,3,0.0,0.0,0.0,0.0,0.0,0.0,0.25,0.0,0.0,0.75,0.5,0.35,0.1701,0.3,0.1244,1.0,0.433,True,cubic,-43m,216,11.133,7.3419,1.0
O12 Rh2 Sc2 Sr6,4,0.0,0.0,0.2727,0.5455,0.0,0.0,0.0,0.0,0.0,0.1818,0.0,2.49,1.1219,1.4,0.6197,3.0,1.42,True,trigonal,-3m,167,14.0029,5.4627,1.0
O28 P8 Sn4,3,0.0,0.0,0.0,0.7,0.0,0.0,0.0,0.0,0.0,0.0,-2.4,1.48,0.6108,0.85,0.2775,3.0,0.922,True,cubic,m-3,205,14.5563,3.3385,1.0
B2 Lu1 Os3,3,0.0,0.0,0.0,0.0,0.0,0.1667,0.3333,0.0,0.1667,0.5,3.5,0.93,0.3306,0.9,0.3092,4.0,1.8856,True,hexagonal,6/mmm,191,13.3307,15.9293,1.8208
Ge2 Mn2 Np1,3,0.2,0.0,0.0,0.0,0.0,0.0,0.4,0.0,0.2,0.4,0.2,0.65,0.2656,0.5,0.1828,5.0,2.0,True,tetragonal,4/mmm,139,16.3248,10.0123,0.6841
Mg1 Se1,2,0.0,0.0,0.5,0.5,0.0,0.0,0.0,0.0,0.0,0.0,0.0,1.24,0.62,0.35,0.175,1.0,0.5,True,cubic,-43m,216,27.0069,3.1747,1.0
O14 Sn4 Tm4,3,0.0,0.0,0.0,0.6364,0.0,0.1818,0.0,0.0,0.1818,0.0,-1.4545,2.19,0.9083,1.15,0.4895,6.0,2.3461,True,cubic,m-3m,227,12.8425,8.0787,1.0
F14 Sn2 Y2,3,0.0,0.0,0.0,0.0,0.7778,0.0,0.0,0.0,0.0,0.1111,-0.8889,2.76,1.0088,1.3,0.4749,3.0,1.2472,True,monoclinic,2,4,15.6653,4.0116,0.6996
Cu2 Li2 O8 P2,4,0.0,0.1429,0.0,0.5714,0.0,0.0,0.0,0.0,0.0,0.1429,-1.1429,2.46,0.9295,0.85,0.3533,2.0,0.7284,True,orthorhombic,mm2,43,10.5693,3.7136,1.0
Rh1 Ti1,2,0.0,0.0,0.0,0.0,0.0,0.0,0.0,0.0,0.0,1.0,3.5,0.74,0.37,0.05,0.025,1.0,0.5,True,cubic,m-3m,221,15.1157,8.2816,1.0
Ba1 Fe2 P2,3,0.0,0.0,0.2,0.0,0.0,0.0,0.0,0.0,0.0,0.4,0.0,1.3,0.4761,1.15,0.42,3.0,1.0954,True,tetragonal,4/mmm,139,18.1094,5.7028,0.5682
Ga3 O7 P1,3,0.0,0.0,0.0,0.6364,0.0,0.0,0.0,0.0,0.0,0.0,-0.7273,1.63,0.745,0.7,0.3107,2.0,0.8814,True,trigonal,3m,160,11.4759,4.6321,1.0
Eu8 I20 Rb4,3,0.0,0.125,0.0,0.0,0.625,0.25,0.0,0.0,0.25,0.0,0.0,2.66,1.1794,0.95,0.3316,3.0,1.299,True,monoclinic,2/m,14,41.6069,5.1081,0.6316
Ge3 Sm2 Zn6,3,0.0,0.0,0.0,0.0,0.0,0.1818,0.2727,0.0,0.1818,0.5455,0.5455,0.84,0.2777,0.6,0.2101,4.0,1.5428,True,hexagonal,-6m2,189,18.777,7.3248,1.8767
Er1 In1,2,0.0,0.0,0.0,0.0,0.0,0.5,0.0,0.0,0.5,0.0,3.0,0.54,0.27,0.2,0.1,3.0,1.5,True,cubic,m-3m,221,26.0062,9.0055,1.0
Mo1 O2,2,0.0,0.0,0.0,0.6667,0.0,0.0,0.0,0.0,0.0,0.3333,0.0,1.28,0.6034,0.85,0.4007,3.0,1.4142,True,trigonal,-3m,166,14.0139,5.0532,1.0
Cd1 Cu4 Ho1,3,0.0,0.0,0.0,0.0,0.0,0.1667,0.0,0.0,0.1667,0.8333,2.1667,0.67,0.2463,0.4,0.1528,4.0,1.4625,True,cubic,-43m,216,15.5374,9.4677,1.0
C1 Pb1 Pt3,3,0.0,0.0,0.0,0.0,0.0,0.0,0.0,0.0,0.0,0.6,0.8,0.27,0.1048,1.1,0.3513,4.0,1.6,True,cubic,m-3m,221,16.4404,16.2508,1.0
Ba12 I8 P12,3,0.0,0.0,0.375,0.0,0.25,0.0,0.0,0.0,0.0,0.0,-0.625,1.77,0.743,1.15,0.5037,3.0,1.317,True,orthorhombic,mmm,62,36.1741,4.3535,0.2616
Pd1 Se6 Ta2,3,0.0,0.0,0.0,0.6667,0.0,0.0,0.0,0.0,0.0,0.3333,0.0,1.05,0.4295,0.3,0.1343,2.0,0.8315,True,monoclinic,2/m,12,25.5193,6.8112,0.3497
Au4 Pb2,2,0.0,0.0,0.0,0.0,0.0,0.0,0.0,0.0,0.0,0.6667,2.6667,0.21,0.099,0.45,0.2121,0.0,0.0,True,cubic,m-3m,227,22.4503,14.8209,1.0
Al3 Zr4,2,0.0,0.0,0.0,0.0,0.0,0.0,0.0,0.0,0.0,0.5714,3.5714,0.28,0.1386,0.3,0.1485,2.0,0.9897,True,hexagonal,6/mmm,191,19.8793,5.3202,1.0066
Al28 Cu8 Fe4,3,0.0,0.0,0.0,0.0,0.0,0.0,0.0,0.0,0.0,0.3,2.7,0.29,0.1235,0.15,0.055,1.0,0.4583,True,tetragonal,4/mmm,128,14.747,4.1866,0.4279
O2 S2 U2,3,0.3333,0.0,0.0,0.3333,0.0,0.0,0.0,0.0,0.3333,0.0,0.6667,2.06,0.8448,1.15,0.4767,7.0,3.0912,True,tetragonal,4/mmm,129,16.1673,9.7949,0.5619
C4 N4 S4 Sr2,4,0.0,0.0,0.1429,0.0,0.0,0.0,0.0,0.0,0.0,0.0,-2.2857,2.09,0.6543,1.35,0.4491,3.0,1.0302,True,monoclinic,2/m,15,20.0479,2.4113,0.7435
Ba3 Nb16 O23,3,0.0,0.0,0.0714,0.5476,0.0,0.0,0.0,0.0,0.0,0.381,0.9524,2.55,0.9871,1.55,0.508,4.0,1.5908,True,orthorhombic,mmm,65,13.4563,6.6592,0.3416
Li6 Sb2,2,0.0,0.75,0.0,0.0,0.0,0.0,0.25,0.0,0.0,0.0,0.0,1.07,0.4633,0.0,0.0,3.0,1.299,True,hexagonal,6/mmm,194,19.8763,2.978,0.5619
Ge2 Li2 O10 Ta2,4,0.0,0.125,0.0,0.625,0.0,0.0,0.125,0.0,0.0,0.125,-1.0,2.46,0.9754,0.85,0.3836,4.0,1.3919,True,monoclinic,2/m,15,12.988,5.4421,0.7429
Cu2 La2 Si2,3,0.0,0.0,0.0,0.0,0.0,0.3333,0.3333,0.0,0.3333,0.6667,0.3333,0.8,0.3771,0.85,0.3567,5.0,2.1602,True,hexagonal,6/mmm,194,21.4514,5.9486,0.5194
Hf5 Te4,2,0.0,0.0,0.0,0.4444,0.0,0.0,0.4444,0.0,0.0,0.5556,1.3333,0.8,0.3975,0.15,0.0745,1.0,0.4969,True,tetragonal,4/m,87,24.3722,10.62,0.4822
As2 Cd2 Sr1,3,0.0,0.0,0.2,0.0,0.0,0.0,0.4,0.0,0.0,0.4,-0.0,1.23,0.4508,0.85,0.3156,1.0,0.4899,True,trigonal,-3m,164,26.5972,5.7724,0.6037
C1 F2 Ho2,3,0.0,0.0,0.0,0.0,0.4,0.4,0.0,0.0,0.4,0.0,0.0,2.75,1.23,1.25,0.5843,6.0,2.9394,True,trigonal,-3m,164,14.7521,8.5518,0.5672
Na4 O12 Sn2 Te2,4,0.0,0.2,0.0,0.7,0.0,0.0,0.1,0.0,0.0,0.0,-1.6,2.51,1.0217,1.2,0.5101,3.0,1.1662,True,monoclinic,2/m,14,11.9608,5.3907,0.7022
Dy1 Rh5,2,0.0,0.0,0.0,0.0,0.0,0.1667,0.0,0.0,0.1667,0.8333,3.0,1.06,0.395,0.4,0.1491,3.0,1.118,True,hexagonal,6/mmm,191,17.1954,10.8966,1.2095
B4 H20 N4 O36 P8 V4,6,0.0,0.0,0.0,0.4737,0.0,0.0,0.0526,0.0,0.0,0.0526,-1.2632,1.81,0.6583,1.1,0.2865,3.0,0.7591,True,monoclinic,2/m,14,10.1966,2.4577,0.8527
Cu4 Nd2 O8,3,0.0,0.0,0.0,0.5714,0.0,0.1429,0.0,0.0,0.1429,0.2857,-0.1429,2.3,0.9179,1.25,0.4792,6.0,2.0603,True,monoclinic,2/m,15,11.9039,6.6825,0.9147
Cr8 S12,2,0.0,0.0,0.0,0.0,0.0,0.0,0.0,0.0,0.0,0.4,0.0,0.92,0.4507,0.4,0.196,1.0,0.4899,True,trigonal,-3m,163,17.7123,3.7535,0.5349
Ge4 Nd8 O20,3,0.0,0.0,0.0,0.625,0.0,0.25,0.125,0.0,0.25,0.0,-1.0,2.3,1.005,1.25,0.537,6.0,2.5372,True,monoclinic,2/m,14,15.6749,5.8413,0.6932
Cd2 O8 V4,3,0.0,0.0,0.0,0.5714,0.0,0.0,0.0,0.0,0.0,0.4286,0.5714,1.81,0.886,0.95,0.4088,3.0,1.1952,True,cubic,m-3m,227,12.2768,5.3773,1.0
I44 Nb24,2,0.0,0.0,0.0,0.0,0.6471,0.0,0.0,0.0,0.0,0.3529,1.1176,1.06,0.5066,0.05,0.0239,0.0,0.0,True,orthorhombic,mm2,33,38.3605,4.974,0.7162
Fe4 K8 Li8 O16,4,0.0,0.4444,0.0,0.4444,0.0,0.0,0.0,0.0,0.0,0.1111,-0.2222,2.62,1.2033,1.6,0.632,2.0,0.9428,True,monoclinic,2/m,14,14.8897,2.626,0.4941
Cu3 K3 P2,3,0.0,0.375,0.0,0.0,0.0,0.0,0.0,0.0,0.0,0.375,0.375,1.37,0.5898,1.2,0.4981,1.0,0.433,True,trigonal,-3m,166,23.6101,3.2518,1.0
Ba8 S32 Sn8 Zn8,4,0.0,0.0,0.1429,0.0,0.0,0.0,0.0,0.0,0.0,0.1429,-1.1429,1.69,0.6101,1.15,0.3972,3.0,1.1249,True,orthorhombic,mm2,43,27.9118,3.822,0.9769
Rh4 Zn22,2,0.0,0.0,0.0,0.0,0.0,0.0,0.0,0.0,0.0,1.0,2.1538,0.63,0.2273,0.0,0.0,1.0,0.3608,True,cubic,-43m,217,14.6674,8.0582,1.0
Ca2 O6 Pd1 W1,4,0.0,0.0,0.2,0.6,0.0,0.0,0.0,0.0,0.0,0.2,-0.2,2.44,0.9709,1.2,0.5022,4.0,1.4457,True,cubic,m-3m,225,13.4678,5.7507,1.0
Pt4 Sn4 Sr4,3,0.0,0.0,0.3333,0.0,0.0,0.0,0.0,0.0,0.0,0.3333,0.0,1.33,0.5668,0.65,0.2858,1.0,0.4714,True,orthorhombic,mmm,62,24.9342,8.911,0.5881
Cl1 H4 N1,3,0.0,0.0,0.0,0.0,0.1667,0.0,0.0,0.0,0.0,0.0,-1.3333,0.96,0.4257,0.75,0.2893,2.0,0.7638,True,cubic,-43m,215,9.7135,1.5241,1.0
As4 Ni2 Zr4,3,0.0,0.0,0.0,0.0,0.0,0.0,0.4,0.0,0.0,0.6,0.8,0.85,0.3852,0.4,0.1789,1.0,0.4899,True,hexagonal,6/mmm,194,17.7864,7.3005,0.3
Ni4 O24 P8,3,0.0,0.0,0.0,0.6667,0.0,0.0,0.0,0.0,0.0,0.1111,-1.7778,1.53,0.6378,0.75,0.2615,2.0,0.6849,True,monoclinic,2/m,15,11.9806,3.3363,0.7378
Ca2 Ce16 Se24,3,0.0,0.0,0.0476,0.5714,0.0,0.381,0.0,0.0,0.381,0.0,0.0952,1.55,0.7147,0.7,0.3438,4.0,1.9425,True,monoclinic,m,9,25.448,6.5517,2.5961
Er4 Ni34,2,0.0,0.0,0.0,0.0,0.0,0.1053,0.0,0.0,0.1053,0.8947,2.1053,0.67,0.2056,0.4,0.1228,4.0,1.2276,True,hexagonal,6/mmm,194,12.3942,9.3947,1.0318
O12 P4 Zn2,3,0.0,0.0,0.0,0.6667,0.0,0.0,0.0,0.0,0.0,0.1111,-1.7778,1.79,0.6899,0.75,0.2615,2.0,0.6849,True,monoclinic,2/m,15,11.962,3.445,0.7446
Ag2 Pr2 Sn2,3,0.0,0.0,0.0,0.0,0.0,0.3333,0.0,0.0,0.3333,0.3333,0.0,0.83,0.3844,0.4,0.165,3.0,1.4142,True,hexagonal,6mm,186,26.1606,7.7754,0.6257
Mn2 O6 Sn2,3,0.0,0.0,0.0,0.6,0.0,0.0,0.0,0.0,0.0,0.2,-1.6,1.89,0.8356,0.85,0.4045,3.0,1.2649,True,trigonal,-3,148,12.5963,5.8438,1.0
P4 Re8,2,0.0,0.0,0.0,0.0,0.0,0.0,0.0,0.0,0.0,0.6667,1.6667,0.29,0.1367,0.35,0.165,3.0,1.4142,True,orthorhombic,mmm,62,13.9405,16.0166,0.2924
As6 Ce8,2,0.0,0.0,0.0,0.0,0.0,0.5714,0.4286,0.0,0.5714,0.0,0.4286,1.06,0.5246,0.7,0.3464,4.0,1.9795,True,cubic,-43m,220,25.2057,7.3901,1.0
Dy3 I12 K5,3,0.0,0.25,0.0,0.0,0.6,0.15,0.0,0.0,0.15,0.0,0.1,1.84,0.8369,0.8,0.3386,4.0,1.249,True,hexagonal,-6m2,189,42.5845,4.3007,3.3432
Ba4 Mg6 Si8,3,0.0,0.0,0.5556,0.0,0.0,0.0,0.4444,0.0,0.0,0.0,-0.6667,1.01,0.4067,1.05,0.4048,3.0,1.2472,True,monoclinic,2/m,12,24.4749,3.467,0.2955
N16 Zr12,2,0.0,0.0,0.0,0.0,0.0,0.0,0.0,0.0,0.0,0.4286,0.0,1.71,0.8462,0.9,0.4454,3.0,1.4846,True,orthorhombic,mmm,62,12.7312,6.1433,0.3029
Ge4 K4 N4 O4,4,0.0,0.25,0.0,0.25,0.0,0.0,0.25,0.0,0.0,0.0,-2.0,2.62,1.0147,1.6,0.6447,2.0,1.0,True,orthorhombic,mm2,29,15.7415,3.7381,0.6459
H16 Mg32 O80 P16,4,0.0,0.0,0.2222,0.5556,0.0,0.0,0.0,0.0,0.0,0.0,-1.1111,2.13,0.8889,1.25,0.4113,2.0,0.6285,True,monoclinic,2/m,14,10.2492,2.8909,0.7525
Ir4 K1 O8,3,0.0,0.0769,0.0,0.6154,0.0,0.0,0.0,0.0,0.0,0.3077,-0.2308,2.62,0.8131,1.6,0.4948,4.0,1.8203,True,monoclinic,2/m,12,12.864,9.2937,0.4398
N1 Pu1,2,0.5,0.0,0.0,0.0,0.0,0.0,0.0,0.0,0.5,0.0,0.5,1.76,0.88,1.1,0.55,7.0,3.5,True,cubic,m-3m,225,15.0819,14.2034,1.0
Co4 H6 Li2 O28 P8,5,0.0,0.0417,0.0,0.5833,0.0,0.0,0.0,0.0,0.0,0.0833,-1.5833,2.46,0.7433,1.2,0.323,3.0,0.7626,True,monoclinic,m,9,11.3919,2.8893,0.9476
Nb20 O56 Pr4,3,0.0,0.0,0.0,0.7,0.0,0.05,0.0,0.0,0.05,0.25,0.0,2.31,0.8843,1.25,0.4279,6.0,1.7168,True,orthorhombic,mmm,59,12.7084,5.4189,0.3088
Ca1 Cu3 O12 Ti4,4,0.0,0.0,0.05,0.6,0.0,0.0,0.0,0.0,0.0,0.35,0.0,2.44,0.9155,1.2,0.4169,2.0,0.9798,True,cubic,m-3,204,10.357,4.9235,1.0
Ba4 Cr4 O12,3,0.0,0.0,0.2,0.6,0.0,0.0,0.0,0.0,0.0,0.2,-0.2,2.55,1.0882,1.55,0.6226,4.0,1.6,True,hexagonal,6/mmm,194,13.5337,5.8237,0.6084
Ba2 Fe2 La4 S10,4,0.0,0.0,0.1111,0.0,0.0,0.2222,0.0,0.0,0.2222,0.3333,-0.0,1.69,0.7118,1.15,0.4673,5.0,2.0608,True,tetragonal,4/mmm,140,24.0945,4.8343,0.9087
Cd2 P4 Sn2,3,0.0,0.0,0.0,0.0,0.0,0.0,0.0,0.0,0.0,0.25,-2.0,0.5,0.206,0.55,0.2525,2.0,1.0,True,tetragonal,-42m,122,26.2519,4.6344,0.8278
Na1 O13 Ti8,3,0.0,0.0455,0.0,0.5909,0.0,0.0,0.0,0.0,0.0,0.3636,0.3182,2.51,0.9752,1.2,0.4229,2.0,0.9502,True,trigonal,-3,148,11.1762,4.1461,1.0
Al20 Er12 O48,3,0.0,0.0,0.0,0.6,0.0,0.15,0.0,0.0,0.15,0.0,0.0,2.2,0.9711,1.15,0.4379,6.0,2.0803,True,cubic,m-3m,230,10.9361,6.2913,1.0
O32 Ta16,2,0.0,0.0,0.0,0.6667,0.0,0.0,0.0,0.0,0.0,0.3333,0.3333,1.94,0.9145,0.85,0.4007,4.0,1.8856,True,tetragonal,4/m,88,11.9945,9.8269,0.5889
Eu1 Ge3 Pt1,3,0.0,0.0,0.0,0.0,0.0,0.2,0.6,0.0,0.2,0.2,-1.6,2.28,0.8376,0.6,0.2332,4.0,1.6,True,tetragonal,4mm,107,20.6071,9.1051,0.751
Ca2 O6 Pt2,3,0.0,0.0,0.2,0.6,0.0,0.0,0.0,0.0,0.0,0.2,-0.4,2.44,0.9703,1.2,0.4984,4.0,1.6,True,orthorhombic,mmm,63,11.8765,7.9181,0.4286
Ni5 Y1,2,0.0,0.0,0.0,0.0,0.0,0.0,0.0,0.0,0.0,1.0,2.1667,0.69,0.2571,0.45,0.1677,1.0,0.3727,True,hexagonal,6/mmm,191,13.5563,7.8063,1.2343
Li12 O24 Se6,3,0.0,0.2857,0.0,0.7143,0.0,0.0,0.0,0.0,0.0,0.0,-1.1429,2.46,1.0739,0.85,0.3825,2.0,0.6999,True,trigonal,-3,148,13.2585,2.8062,1.0
Br4 Co2 H16 O8,4,0.0,0.0,0.0,0.2667,0.1333,0.0,0.0,0.0,0.0,0.0667,-1.0667,1.56,0.5703,1.1,0.373,3.0,1.147,True,monoclinic,2/m,14,12.5813,2.5588,0.7076
Pt4 Sb8,2,0.0,0.0,0.0,0.0,0.0,0.0,0.6667,0.0,0.0,0.3333,-1.3333,0.23,0.1084,0.1,0.0471,1.0,0.4714,True,cubic,m-3,205,23.4053,10.3726,1.0
Br10 K2 Sn4,3,0.0,0.125,0.0,0.0,0.625,0.0,0.0,0.0,0.0,0.0,-1.5,2.14,0.7447,1.05,0.3432,1.0,0.433,True,tetragonal,4/mmm,140,33.8024,4.1513,0.8813
Pt2 Si2 U1,3,0.2,0.0,0.0,0.0,0.0,0.0,0.4,0.0,0.2,0.4,0.4,0.9,0.331,0.65,0.2379,6.0,2.245,True,tetragonal,4/mmm,139,17.0716,13.3136,0.684
Ge8,1,0.0,0.0,0.0,0.0,0.0,0.0,1.0,0.0,0.0,0.0,-4.0,0.0,0.0,0.0,0.0,0.0,0.0,True,orthorhombic,mmm,64,19.4163,6.2124,0.9967
Au2 Br6 Rb2,3,0.0,0.2,0.0,0.0,0.6,0.0,0.0,0.0,0.0,0.2,0.2,2.14,0.8301,1.2,0.4665,2.0,0.8,True,monoclinic,2/m,12,36.4914,4.7521,0.8526
Te8 Tl8,2,0.0,0.0,0.0,0.5,0.0,0.0,0.5,0.0,0.0,0.0,-0.5,0.48,0.24,0.5,0.25,1.0,0.5,True,tetragonal,4/mmm,140,33.8332,8.1469,0.6329
Pr2 Ru4,2,0.0,0.0,0.0,0.0,0.0,0.3333,0.0,0.0,0.3333,0.6667,3.0,1.07,0.5044,0.55,0.2593,3.0,1.4142,True,cubic,m-3m,227,19.1006,9.9411,1.0
Mn1 Rh1 Sb1,3,0.0,0.0,0.0,0.0,0.0,0.0,0.3333,0.0,0.0,0.6667,0.6667,0.73,0.3047,0.1,0.0408,1.0,0.4714,True,cubic,-43m,216,18.9967,8.1469,1.0
Ce2 O2 P2 Zn2,4,0.0,0.0,0.0,0.25,0.0,0.25,0.0,0.0,0.25,0.25,0.0,2.32,0.8612,1.25,0.4596,6.0,2.2776,True,trigonal,-3m,166,17.7703,5.8987,1.0
Cl4 H16 N4 O4,4,0.0,0.0,0.0,0.1429,0.1429,0.0,0.0,0.0,0.0,0.0,-1.4286,1.24,0.5133,0.75,0.2735,2.0,0.7284,True,monoclinic,2/m,14,10.078,1.6357,0.8399
Ba2 Cl2 F2,3,0.0,0.0,0.3333,0.0,0.6667,0.0,0.0,0.0,0.0,0.0,0.0,3.09,1.307,1.65,0.6908,4.0,1.6997,True,tetragonal,4/mmm,129,24.3756,4.3548,0.607
Al1 O4 P1,3,0.0,0.0,0.0,0.6667,0.0,0.0,0.0,0.0,0.0,0.0,-1.3333,1.83,0.745,0.65,0.2578,1.0,0.4714,True,tetragonal,-4,82,16.0468,2.1033,1.0
C4 Mn12 W12,3,0.0,0.0,0.0,0.0,0.0,0.0,0.0,0.0,0.0,0.8571,2.0,1.0,0.4289,0.7,0.2373,4.0,1.3997,True,cubic,m-3m,227,12.3255,14.018,1.0
Ca8 K8 O48 S12,4,0.0,0.1053,0.1053,0.6316,0.0,0.0,0.0,0.0,0.0,0.0,-1.2632,2.62,1.0096,1.6,0.5641,2.0,0.8154,True,orthorhombic,222,19,15.423,2.5304,0.98
Pd2 Te2,2,0.0,0.0,0.0,0.5,0.0,0.0,0.5,0.0,0.0,0.5,0.0,0.1,0.05,0.0,0.0,0.0,0.0,True,hexagonal,6/mmm,194,22.0856,8.7976,0.7325
Ba3 Li4 Sn8,3,0.0,0.2667,0.2,0.0,0.0,0.0,0.0,0.0,0.0,0.0,-1.4667,1.07,0.5091,0.7,0.28,4.0,1.4967,True,monoclinic,2/m,12,28.8855,5.3249,0.6801
F28 Ho4 Pt4,3,0.0,0.0,0.0,0.0,0.7778,0.1111,0.0,0.0,0.1111,0.1111,-0.2222,2.75,0.9576,1.25,0.4466,6.0,2.1315,True,monoclinic,2/m,14,14.4414,6.2986,0.4975
F6 Hf1 K2,3,0.0,0.2222,0.0,0.0,0.6667,0.0,0.0,0.0,0.0,0.1111,0.0,3.16,1.4202,1.7,0.7213,4.0,1.3699,True,cubic,m-3m,225,18.6722,3.6627,1.0
Cr2 O8 P2,3,0.0,0.0,0.0,0.6667,0.0,0.0,0.0,0.0,0.0,0.1667,-1.3333,1.78,0.7304,0.8,0.3055,2.0,0.7638,True,orthorhombic,mm2,43,12.0958,3.3627,1.0
Br6 Ir2,2,0.0,0.0,0.0,0.0,0.75,0.0,0.0,0.0,0.0,0.25,0.0,0.76,0.3291,0.2,0.0866,2.0,0.866,True,monoclinic,2/m,12,30.2444,5.9287,0.9294
Ru3 U1,2,0.25,0.0,0.0,0.0,0.0,0.0,0.0,0.0,0.25,0.75,3.75,0.82,0.3551,0.45,0.1949,4.0,1.7321,True,cubic,m-3m,221,16.0136,14.031,1.0
Ag2 Br4 Cs2,3,0.0,0.25,0.0,0.0,0.5,0.0,0.0,0.0,0.0,0.25,0.0,2.17,0.8958,1.45,0.5921,2.0,0.8292,True,orthorhombic,mmm,63,35.8626,4.637,0.4471
Cl18 K2 Zr7,3,0.0,0.0741,0.0,0.0,0.6667,0.0,0.0,0.0,0.0,0.2593,0.4444,2.34,0.9242,1.2,0.3626,2.0,0.8717,True,trigonal,-3,148,26.3602,3.1612,1.0
F1 O1 Y1,3,0.0,0.0,0.0,0.3333,0.3333,0.0,0.0,0.0,0.0,0.3333,0.0,2.76,1.1943,1.3,0.5907,3.0,1.4142,True,cubic,-43m,216,13.4204,5.1103,1.0
Pt6 Sb4,2,0.0,0.0,0.0,0.0,0.0,0.0,0.4,0.0,0.0,0.6,-0.0,0.23,0.1127,0.1,0.049,1.0,0.4899,True,orthorhombic,mmm,72,19.7536,13.9338,0.7727
Cu1 K5 Sb2,3,0.0,0.625,0.0,0.0,0.0,0.0,0.25,0.0,0.0,0.125,0.125,1.23,0.5729,0.85,0.3803,1.0,0.433,True,trigonal,-3m,166,36.8302,2.8323,1.0
K2 O13 Ti6,3,0.0,0.0952,0.0,0.619,0.0,0.0,0.0,0.0,0.0,0.2857,0.0,2.62,1.0283,1.6,0.5306,2.0,0.9712,True,monoclinic,2/m,12,13.089,3.464,0.4136
Hg2 Rh1,2,0.0,0.0,0.0,0.0,0.0,0.0,0.0,0.0,0.0,1.0,1.6667,0.28,0.132,0.15,0.0707,1.0,0.4714,True,tetragonal,4/mmm,123,22.266,12.5311,0.6578
Na4 O8 S2,3,0.0,0.2857,0.0,0.5714,0.0,0.0,0.0,0.0,0.0,0.0,-1.1429,2.51,1.0955,1.2,0.5237,1.0,0.4949,True,trigonal,-3m,164,12.7935,2.6338,0.5954
Ag10 Zn16,2,0.0,0.0,0.0,0.0,0.0,0.0,0.0,0.0,0.0,1.0,1.6154,0.28,0.1362,0.25,0.1216,1.0,0.4865,True,cubic,-43m,217,16.1856,8.386,1.0
Cd2 Cs2 Pr2 Te6,4,0.0,0.1667,0.0,0.5,0.0,0.1667,0.5,0.0,0.1667,0.1667,-0.0,1.31,0.5195,1.2,0.433,3.0,1.1055,True,orthorhombic,mmm,63,41.2375,5.1611,0.3821
Co12 Nb2 P7,3,0.0,0.0,0.0,0.0,0.0,0.0,0.0,0.0,0.0,0.6667,0.619,0.59,0.1834,0.45,0.1741,2.0,0.6098,True,hexagonal,-6,174,11.3753,7.7147,2.5058
Ca4 O12 Zr4,3,0.0,0.0,0.2,0.6,0.0,0.0,0.0,0.0,0.0,0.2,0.0,2.44,1.1194,1.2,0.5325,3.0,1.2649,True,orthorhombic,mmm,62,13.3131,4.4728,0.6972
Fe4 Li6 O24 P6,4,0.0,0.15,0.0,0.6,0.0,0.0,0.0,0.0,0.0,0.1,-1.3,2.46,0.9416,0.85,0.3533,2.0,0.6538,True,monoclinic,2/m,12,10.4012,3.3321,0.2575
In4 P8 Sr6,3,0.0,0.0,0.3333,0.0,0.0,0.0,0.0,0.0,0.0,0.0,0.0,1.24,0.5435,1.0,0.4393,2.0,0.9938,True,orthorhombic,mmm,58,27.4033,4.1501,0.2645
Al20 Gd12 O48,3,0.0,0.0,0.0,0.6,0.0,0.15,0.0,0.0,0.15,0.0,0.0,2.24,0.9799,1.2,0.452,6.0,2.0803,True,cubic,m-3m,230,11.3793,5.8272,1.0
Hf12 P12 Pd16,3,0.0,0.0,0.0,0.0,0.0,0.0,0.0,0.0,0.0,0.7,1.1,0.9,0.4105,0.55,0.2216,3.0,1.1874,True,orthorhombic,mmm,62,15.7814,11.0911,0.2311
Fe29 Y3,2,0.0,0.0,0.0,0.0,0.0,0.0,0.0,0.0,0.0,1.0,2.0938,0.61,0.1778,0.4,0.1166,1.0,0.2915,True,monoclinic,2/m,12,13.2758,7.3728,0.6127
Ca4 Fe2 O12 Re2,4,0.0,0.0,0.2,0.6,0.0,0.0,0.0,0.0,0.0,0.2,-0.2,2.44,1.0209,1.2,0.5022,4.0,1.3416,True,monoclinic,2/m,14,12.1311,5.7245,0.7075
Ge4 Ho4 Mn4,3,0.0,0.0,0.0,0.0,0.0,0.3333,0.3333,0.0,0.3333,0.3333,0.3333,0.78,0.3201,0.5,0.2095,4.0,1.8856,True,orthorhombic,mmm,62,18.981,8.53,0.5185
As16 F96 S64,3,0.0,0.0,0.0,0.0,0.5455,0.0,0.0909,0.0,0.0,0.0,-1.5455,1.8,0.7448,0.65,0.267,2.0,0.6556,True,monoclinic,2/m,14,19.0718,2.5105,0.8222
Gd1 Sn3,2,0.0,0.0,0.0,0.0,0.0,0.25,0.0,0.0,0.25,0.0,-2.25,0.76,0.3291,0.35,0.1516,3.0,1.299,True,cubic,m-3m,221,26.6743,7.9898,1.0
Fe6 Ge6 Lu1,3,0.0,0.0,0.0,0.0,0.0,0.0769,0.4615,0.0,0.0769,0.4615,-0.6923,0.74,0.1936,0.5,0.1342,2.0,0.5329,True,hexagonal,6/mmm,191,14.0823,8.5796,0.6268
Al2 As4 K4 Na2,4,0.0,0.5,0.0,0.0,0.0,0.0,0.3333,0.0,0.0,0.0,-0.0,1.36,0.5988,1.05,0.4626,1.0,0.4714,True,orthorhombic,mmm,72,28.0242,2.7455,0.7324
Al1 Co2 Tb2,3,0.0,0.0,0.0,0.0,0.0,0.4,0.0,0.0,0.4,0.4,2.6,1.88,0.8824,0.5,0.2154,5.0,2.1541,True,orthorhombic,mmm,71,18.6399,8.2439,0.7426
Mn2 Si2 Tb2,3,0.0,0.0,0.0,0.0,0.0,0.3333,0.3333,0.0,0.3333,0.3333,0.3333,1.9,0.8256,0.65,0.2656,5.0,2.1602,True,tetragonal,4/mmm,129,18.4964,7.2404,0.5473
B2 Cr2 O6,3,0.0,0.0,0.0,0.6,0.0,0.0,0.2,0.0,0.0,0.2,0.0,1.78,0.7882,0.8,0.3105,2.0,0.8,True,trigonal,-3m,167,9.0938,4.0466,1.0
Ag2 Tb1,2,0.0,0.0,0.0,0.0,0.0,0.3333,0.0,0.0,0.3333,0.6667,1.6667,1.93,0.9098,0.15,0.0707,3.0,1.4142,True,tetragonal,4/mmm,139,21.9964,9.4279,0.7049
Na10 O32 Tb2 W8,4,0.0,0.1923,0.0,0.6154,0.0,0.0385,0.0,0.0,0.0385,0.1538,-0.3077,3.44,1.1117,1.2,0.5118,6.0,1.7205,True,tetragonal,4/m,88,15.0004,5.3869,1.0
Nb8 O24 Zn4,3,0.0,0.0,0.0,0.6667,0.0,0.0,0.0,0.0,0.0,0.3333,0.0,1.84,0.8596,0.85,0.3859,3.0,1.2862,True,orthorhombic,mmm,60,11.9231,5.373,0.3532
O1 Ti1,2,0.0,0.0,0.0,0.5,0.0,0.0,0.0,0.0,0.0,0.5,1.0,1.9,0.95,0.8,0.4,2.0,1.0,True,cubic,m-3m,225,9.8648,5.3753,1.0