formula,numberOfSpecies,fracActinoid,fracAlkali,fracAlkaline,fracChalcogen,fracHalogen,fracLanthanoid,fracMetalloid,fracNobleGas,fracRareEarth,fracTransitionMetal,electronsPerAtom,electronegativityRange,electronegativityStd,radiiRange,radiiStd,rowRange,rowStd,ordered,crystalSystem,pointGroup,spaceGroupNumber,volumePerSite,density,c_a
Ba2 O6 Te2,3,0.0,0.0,0.2,0.8,0.0,0.0,0.2,0.0,0.0,0.0,-1.2,2.55,1.0268,1.55,0.6226,4.0,1.7436,True,monoclinic,2/m,11,19.6345,5.293,0.6414
Si8 Ti6 U4,3,0.2222,0.0,0.0,0.0,0.0,0.0,0.4444,0.0,0.2222,0.3333,0.8889,0.52,0.2186,0.65,0.2533,6.0,2.357,True,monoclinic,2/m,14,17.0497,7.9214,1.0152
Co4 Li8 O28 P8,4,0.0,0.1667,0.0,0.5833,0.0,0.0,0.0,0.0,0.0,0.0833,-1.3333,2.46,0.9549,0.85,0.3473,2.0,0.6236,True,monoclinic,2/m,14,11.5044,2.9681,1.5177
B2 Pd7 Y1,3,0.0,0.0,0.0,0.0,0.0,0.0,0.2,0.0,0.0,0.8,2.3,0.98,0.2903,0.95,0.2676,3.0,1.2,True,cubic,m-3m,225,15.2291,9.3278,1.0
C2 I7 Y6,3,0.0,0.0,0.0,0.0,0.4667,0.0,0.0,0.0,0.0,0.4,0.2,1.44,0.6944,1.1,0.3534,3.0,1.0198,True,monoclinic,2/m,12,31.3368,5.1075,0.3334
K4 Mn4 O6,3,0.0,0.2857,0.0,0.4286,0.0,0.0,0.0,0.0,0.0,0.2857,0.0,2.62,1.1495,1.6,0.6664,2.0,0.9897,True,monoclinic,2/m,14,17.097,3.2755,0.9471
Eu2 Nb2 O8,3,0.0,0.0,0.0,0.6667,0.0,0.1667,0.0,0.0,0.1667,0.1667,-0.1667,3.44,1.3275,1.25,0.5083,6.0,2.2913,True,monoclinic,2/m,15,13.4587,6.3514,0.7752
Si2,1,0.0,0.0,0.0,0.0,0.0,0.0,1.0,0.0,0.0,0.0,-4.0,0.0,0.0,0.0,0.0,0.0,0.0,True,tetragonal,4/mmm,141,15.3334,3.0415,0.7258
As16 Ca12 Ge8,3,0.0,0.0,0.3333,0.0,0.0,0.0,0.6667,0.0,0.0,0.0,-1.5556,1.18,0.5336,0.65,0.2932,0.0,0.0,True,monoclinic,2/m,14,25.1701,4.1431,0.4048
Fe4 O24 Si8,3,0.0,0.0,0.0,0.6667,0.0,0.0,0.2222,0.0,0.0,0.1111,-2.0,1.61,0.7372,0.8,0.2944,2.0,0.6849,True,monoclinic,2/m,14,12.0062,3.1966,1.8199
Ho8 Rh4 Si12,3,0.0,0.0,0.0,0.0,0.0,0.3333,0.5,0.0,0.3333,0.1667,-0.5,1.05,0.3848,0.65,0.2907,5.0,2.2361,True,hexagonal,6/mmm,194,18.8792,7.5792,1.0396
Ge2 Rh2 Sm1,3,0.0,0.0,0.0,0.0,0.0,0.2,0.4,0.0,0.2,0.4,0.2,1.11,0.4083,0.6,0.2245,4.0,1.4697,True,tetragonal,4/mmm,139,18.238,9.1312,0.6928
Sc8 Te12,2,0.0,0.0,0.0,0.6,0.0,0.0,0.6,0.0,0.0,0.4,0.0,0.74,0.3625,0.2,0.098,1.0,0.4899,True,orthorhombic,mmm,70,30.3567,5.1716,0.5497
Al8 Mn12 O48 Si12,4,0.0,0.0,0.0,0.6,0.0,0.0,0.15,0.0,0.0,0.15,-1.2,1.89,0.8602,0.8,0.3289,2.0,0.7399,True,cubic,m-3m,230,10.1304,4.0572,1.0
Ag6 Br2 S2,3,0.0,0.0,0.0,0.0,0.2,0.0,0.0,0.0,0.0,0.6,-0.0,1.03,0.4287,0.6,0.2615,2.0,0.8,True,orthorhombic,mm2,42,23.3827,6.1865,1.4376
Ag2 Pr6 Se14 Si2,4,0.0,0.0,0.0,0.5833,0.0,0.25,0.0833,0.0,0.25,0.0833,-0.6667,1.42,0.5991,0.75,0.3101,5.0,1.7795,True,hexagonal,6,173,25.8148,5.9576,1.777
Ag2 Rb4 S8 V2,4,0.0,0.25,0.0,0.0,0.0,0.0,0.0,0.0,0.0,0.25,0.0,1.76,0.7283,1.35,0.5548,2.0,0.927,True,orthorhombic,mmm,70,29.81,3.1891,0.4787
Cd1 F6 Pd1,3,0.0,0.0,0.0,0.0,0.75,0.0,0.0,0.0,0.0,0.25,-0.25,2.29,0.8904,1.05,0.4238,3.0,1.299,True,trigonal,-3,148,14.6164,4.7264,1.0
Fe8 Rb36 Se28,3,0.0,0.5,0.0,0.3889,0.0,0.0,0.0,0.0,0.0,0.1111,-0.0556,1.73,0.813,1.2,0.5769,1.0,0.5,True,cubic,23,198,36.2489,3.6485,1.0
O8 Sn4,2,0.0,0.0,0.0,0.6667,0.0,0.0,0.0,0.0,0.0,0.0,-2.6667,1.48,0.6977,0.85,0.4007,3.0,1.4142,True,orthorhombic,mmm,60,12.3745,6.7412,0.822
I1 Rb1,2,0.0,0.5,0.0,0.0,0.5,0.0,0.0,0.0,0.0,0.0,0.0,1.84,0.92,0.95,0.475,0.0,0.0,True,cubic,m-3m,221,45.1851,3.9023,1.0
Bi3 Nb1 O7,3,0.0,0.0,0.0,0.6364,0.0,0.0,0.0,0.0,0.0,0.0909,0.0,1.84,0.7417,1.0,0.4647,4.0,1.8227,True,triclinic,1,1,15.1194,8.3055,0.2542
Cs2 Hg2 Pr2 Se6,4,0.0,0.1667,0.0,0.5,0.0,0.1667,0.0,0.0,0.1667,0.1667,-0.1667,1.76,0.7185,1.45,0.5281,4.0,1.4907,True,orthorhombic,mmm,63,34.7331,5.6676,0.3864
Br12 Cs4 Cu4,3,0.0,0.2,0.0,0.0,0.6,0.0,0.0,0.0,0.0,0.2,0.0,2.17,0.8656,1.45,0.5653,2.0,0.8,True,orthorhombic,222,20,33.2632,4.3548,0.5811
Cu6 Rb2 S4,3,0.0,0.1667,0.0,0.0,0.0,0.0,0.0,0.0,0.0,0.5,0.5,1.76,0.5885,1.35,0.4528,2.0,0.6872,True,monoclinic,2/m,12,18.9045,4.981,0.4593
In6 O12 W1,3,0.0,0.0,0.0,0.6316,0.0,0.0,0.0,0.0,0.0,0.0526,-0.1053,1.66,0.7707,0.95,0.4465,4.0,1.5308,True,trigonal,-3,148,12.8832,7.223,1.0
Eu4 Mn4 O12,3,0.0,0.0,0.0,0.6,0.0,0.2,0.0,0.0,0.2,0.2,-0.4,3.44,1.3946,1.25,0.5219,6.0,2.3324,True,orthorhombic,mmm,62,11.8263,7.1582,0.7037
B4 F28 S4,3,0.0,0.0,0.0,0.0,0.7778,0.0,0.1111,0.0,0.0,0.0,-0.6667,1.94,0.7059,0.5,0.1802,1.0,0.3143,True,orthorhombic,mmm,62,14.3356,2.2635,0.5956
Br6 La12 Si14,3,0.0,0.0,0.0,0.0,0.1875,0.375,0.4375,0.0,0.375,0.375,-0.8125,1.86,0.6636,0.85,0.4046,5.0,2.304,True,orthorhombic,mmm,59,26.2052,5.0287,0.2453
Cd2 F8 Tb1,3,0.0,0.0,0.0,0.0,0.7273,0.0909,0.0,0.0,0.0909,0.1818,-0.0909,3.98,1.3371,1.25,0.4998,6.0,1.9285,True,monoclinic,2,5,14.8878,5.4322,0.7765
Ni6 S8,2,0.0,0.0,0.0,0.0,0.0,0.0,0.0,0.0,0.0,0.4286,-0.2857,0.67,0.3316,0.35,0.1732,1.0,0.4949,True,cubic,m-3m,227,15.0125,4.809,1.0
Bi20 Ca22,2,0.0,0.0,0.5238,0.0,0.0,0.0,0.0,0.0,0.0,0.0,2.4762,1.02,0.5094,0.2,0.0999,2.0,0.9989,True,tetragonal,4/mmm,139,32.5882,6.1405,0.9891
Ag1 Se8 Sm5,3,0.0,0.0,0.0,0.5714,0.0,0.3571,0.0,0.0,0.3571,0.0714,0.0,1.38,0.6474,0.7,0.3315,4.0,1.8803,True,tetragonal,-4,82,24.805,7.1312,1.0
Ni8 P4 Yb2,3,0.0,0.0,0.0,0.0,0.0,0.1429,0.0,0.0,0.1429,0.5714,0.7143,2.19,0.7116,0.75,0.2367,5.0,1.5779,True,tetragonal,4/mmm,136,12.7365,8.7494,0.4986
Ca10 Sb6,2,0.0,0.0,0.625,0.0,0.0,0.0,0.375,0.0,0.0,0.0,0.125,1.05,0.5083,0.35,0.1694,1.0,0.4841,True,hexagonal,6/mmm,193,31.2426,3.7582,1.3
B8 Ca10 Ni30,3,0.0,0.0,0.2083,0.0,0.0,0.0,0.1667,0.0,0.0,0.625,2.1667,1.04,0.3836,0.95,0.2894,2.0,0.7454,True,hexagonal,6/mmm,194,12.9809,5.9912,0.1827
Cd1 Cu4 Er1,3,0.0,0.0,0.0,0.0,0.0,0.1667,0.0,0.0,0.1667,0.8333,2.1667,0.66,0.2427,0.4,0.1528,4.0,1.4625,True,cubic,-43m,216,15.4599,9.5568,1.0
Mo8 O32 Sm4 Tl4,4,0.0,0.0,0.0,0.6667,0.0,0.0833,0.0,0.0,0.0833,0.1667,-0.3333,2.27,0.8194,1.3,0.5158,6.0,2.0138,True,orthorhombic,mmm,60,17.3937,5.367,0.2679
F15 Pr1 Zr3,3,0.0,0.0,0.0,0.0,0.7895,0.0526,0.0,0.0,0.0526,0.1579,-0.0,2.85,1.1015,1.35,0.4625,6.0,1.6409,True,trigonal,3m,160,14.8572,4.1151,1.0
Ca2 Cu2 Sb2,3,0.0,0.0,0.3333,0.0,0.0,0.0,0.3333,0.0,0.0,0.3333,0.3333,1.05,0.4637,0.45,0.1929,1.0,0.4714,True,hexagonal,6/mmm,194,23.6188,5.2819,0.5453
K8 Se20,2,0.0,0.2857,0.0,0.7143,0.0,0.0,0.0,0.0,0.0,0.0,-1.1429,1.73,0.7815,1.05,0.4743,0.0,0.0,True,orthorhombic,222,19,32.8102,3.4198,0.3368
In2 Sc4,2,0.0,0.0,0.0,0.0,0.0,0.0,0.0,0.0,0.0,0.6667,3.0,0.42,0.198,0.05,0.0236,1.0,0.4714,True,hexagonal,6/mmm,194,23.2672,4.8704,0.803
Ca2 O6 Si2,3,0.0,0.0,0.2,0.6,0.0,0.0,0.2,0.0,0.0,0.0,-1.6,2.44,1.0156,1.2,0.4716,2.0,0.8,True,tetragonal,4/mmm,127,9.4006,4.1038,0.7116
Ir2 O12 Sr8,3,0.0,0.0,0.3636,0.5455,0.0,0.0,0.0,0.0,0.0,0.0909,-0.0909,2.49,1.1652,1.4,0.6562,4.0,1.616,True,trigonal,-3m,167,15.2373,6.3276,1.0
O14 P4 Ti2,3,0.0,0.0,0.0,0.7,0.0,0.0,0.0,0.0,0.0,0.1,-1.6,1.9,0.6927,0.8,0.2653,2.0,0.6633,True,monoclinic,2,4,13.5336,2.7216,0.6989
Cu2 F6 K2,3,0.0,0.2,0.0,0.0,0.6,0.0,0.0,0.0,0.0,0.2,0.0,3.16,1.3282,1.7,0.68,2.0,0.9798,True,tetragonal,4/mmm,127,13.4737,3.9349,0.7061
As2 Te3,2,0.0,0.0,0.0,0.6,0.0,0.0,1.0,0.0,0.0,0.0,-2.4,0.08,0.0392,0.25,0.1225,1.0,0.4899,True,trigonal,-3m,166,29.2621,6.0452,1.0
Se1,1,0.0,0.0,0.0,1.0,0.0,0.0,0.0,0.0,0.0,0.0,-2.0,0.0,0.0,0.0,0.0,0.0,0.0,True,cubic,m-3m,229,20.4917,6.3985,1.0
Fe12 Si24 Ti12,3,0.0,0.0,0.0,0.0,0.0,0.0,0.5,0.0,0.0,0.5,-0.5,0.36,0.1486,0.3,0.15,1.0,0.5,True,orthorhombic,mmm,55,12.9049,5.1432,0.7953
C120 Sr6,2,0.0,0.0,0.0476,0.0,0.0,0.0,0.0,0.0,0.0,0.0,-3.7143,1.6,0.3407,1.3,0.2768,3.0,0.6389,True,cubic,m-3,200,11.1728,2.3202,1.0
Se2 Zr1,2,0.0,0.0,0.0,0.6667,0.0,0.0,0.0,0.0,0.0,0.3333,0.0,1.22,0.5751,0.4,0.1886,1.0,0.4714,True,trigonal,-3m,164,27.9429,4.9352,0.569
B6 Co14 Pr4,3,0.0,0.0,0.0,0.0,0.0,0.1667,0.25,0.0,0.1667,0.5833,2.4167,0.91,0.3048,1.0,0.32,6.0,1.9076,True,hexagonal,6/mmm,191,12.1906,8.2498,0.4046
Ba4 S6,2,0.0,0.0,0.4,0.0,0.0,0.0,0.0,0.0,0.0,0.0,-0.4,1.69,0.8279,1.15,0.5634,3.0,1.4697,True,tetragonal,4mm,109,29.9959,4.106,0.6658
Cd4 N12 P6 S1,4,0.0,0.0,0.0,0.0,0.0,0.0,0.0,0.0,0.0,0.1739,-2.087,1.35,0.5362,0.9,0.3301,3.0,1.0896,True,cubic,-43m,217,13.6273,4.4272,1.0
Cs6 F14 Si2,3,0.0,0.2727,0.0,0.0,0.6364,0.0,0.0909,0.0,0.0,0.0,-0.7273,3.19,1.4307,2.1,0.9176,4.0,1.7487,True,tetragonal,4/mmm,127,20.37,4.1485,0.7364
Ce1 Te1,2,0.0,0.0,0.0,0.5,0.0,0.5,0.5,0.0,0.5,0.0,0.5,0.98,0.49,0.45,0.225,3.0,1.5,True,cubic,m-3m,225,31.9293,6.9615,1.0
Ag2 Bi2 I8,3,0.0,0.0,0.0,0.0,0.6667,0.0,0.0,0.0,0.0,0.1667,0.0,0.73,0.324,0.2,0.0943,1.0,0.3727,True,orthorhombic,mmm,74,42.1654,5.4115,1.0
B2 Ir3 Y1,3,0.0,0.0,0.0,0.0,0.0,0.0,0.3333,0.0,0.0,0.6667,3.0,0.98,0.3488,0.95,0.3297,4.0,1.8028,True,orthorhombic,mmm,65,13.6292,13.9539,0.5728
La1 P2 Ru2,3,0.0,0.0,0.0,0.0,0.0,0.2,0.0,0.0,0.2,0.6,0.6,1.1,0.438,0.95,0.347,5.0,1.833,True,tetragonal,4/mmm,139,17.8732,7.4881,0.6593
C2 Nd1 Rh1,3,0.0,0.0,0.0,0.0,0.0,0.25,0.0,0.0,0.25,0.25,-0.5,1.41,0.5821,1.15,0.4835,6.0,2.4875,True,orthorhombic,mm2,38,14.5942,7.7135,0.9124
Cr4 S12 Sm4,3,0.0,0.0,0.0,0.0,0.0,0.2,0.0,0.0,0.2,0.2,0.0,1.41,0.5914,0.85,0.3376,5.0,1.9391,True,orthorhombic,mmm,62,18.9175,5.2412,0.2916
Cl12 I2 P2,3,0.0,0.0,0.0,0.0,0.875,0.0,0.0,0.0,0.0,0.0,-1.25,0.97,0.3393,0.4,0.1323,2.0,0.6614,True,tetragonal,-42m,113,36.0483,2.1339,0.5608
Ca1 Ni4 O8,3,0.0,0.0,0.0769,0.6154,0.0,0.0,0.0,0.0,0.0,0.3077,-0.4615,2.44,0.8629,1.2,0.4236,2.0,0.973,True,trigonal,-3m,166,12.1654,4.2298,1.0
Mg1 Sm1,2,0.0,0.0,0.5,0.0,0.0,0.5,0.0,0.0,0.5,0.0,2.5,0.14,0.07,0.35,0.175,5.0,2.5,True,cubic,m-3m,221,28.4542,5.0966,1.0
As4 Cd6,2,0.0,0.0,0.0,0.0,0.0,0.0,0.4,0.0,0.0,0.6,-0.0,0.49,0.24,0.4,0.196,1.0,0.4899,True,cubic,m-3m,224,27.2076,5.9455,1.0
As8 K8,2,0.0,0.5,0.0,0.0,0.0,0.0,0.5,0.0,0.0,0.0,-1.0,1.36,0.68,1.05,0.525,0.0,0.0,True,orthorhombic,222,19,32.8147,2.8849,0.5579
As2 Co1 O6,3,0.0,0.0,0.0,0.6667,0.0,0.0,0.2222,0.0,0.0,0.1111,-1.7778,1.56,0.6463,0.75,0.2958,2.0,0.9428,True,trigonal,-3m,162,10.3779,5.4184,1.0655
Ca2 Ni2 O12 Si4,4,0.0,0.0,0.1,0.6,0.0,0.0,0.2,0.0,0.0,0.1,-1.6,2.44,0.8982,1.2,0.404,2.0,0.8,True,monoclinic,2/m,15,11.2855,3.6923,0.7932
Be1 Co1,2,0.0,0.0,0.5,0.0,0.0,0.0,0.0,0.0,0.0,0.5,2.0,0.31,0.155,0.3,0.15,2.0,1.0,True,cubic,m-3m,221,8.7061,6.4797,1.0
Ga2 Li2,2,0.0,0.5,0.0,0.0,0.0,0.0,0.0,0.0,0.0,0.0,2.0,0.83,0.415,0.15,0.075,2.0,1.0,True,cubic,m-3m,227,15.3207,4.1546,1.0
Cu5 La1,2,0.0,0.0,0.0,0.0,0.0,0.1667,0.0,0.0,0.1667,1.0,2.1667,0.8,0.2981,0.6,0.2236,4.0,1.4907,True,hexagonal,6/mmm,191,15.8738,7.9614,1.2573
Al24 O96 P24,3,0.0,0.0,0.0,0.6667,0.0,0.0,0.0,0.0,0.0,0.0,-1.3333,1.83,0.745,0.65,0.2578,1.0,0.4714,True,orthorhombic,mmm,61,17.5898,1.9188,0.5365
Co2 Ge7 U3,3,0.25,0.0,0.0,0.0,0.0,0.0,0.5833,0.0,0.25,0.1667,-0.5,0.63,0.2645,0.5,0.21,5.0,2.1651,True,orthorhombic,mmm,65,17.9775,10.3177,0.3308
Cu2 Se4 Sn1 Zn1,4,0.0,0.0,0.0,0.5,0.0,0.0,0.0,0.0,0.0,0.375,-0.75,0.9,0.3588,0.3,0.1166,1.0,0.3307,True,tetragonal,-42m,121,23.8707,5.4525,0.8162
H32 O32 P8,3,0.0,0.0,0.0,0.4444,0.0,0.0,0.0,0.0,0.0,0.0,-1.6667,1.25,0.6172,0.75,0.2447,2.0,0.6667,True,orthorhombic,mmm,56,10.4466,1.7486,0.5719
Ni4 O28 P8,3,0.0,0.0,0.0,0.7,0.0,0.0,0.0,0.0,0.0,0.1,-1.8,1.53,0.6198,0.75,0.2534,2.0,0.6633,True,monoclinic,2/m,14,12.865,3.0027,0.8079
Ba1 O3 Ti1,3,0.0,0.0,0.2,0.6,0.0,0.0,0.0,0.0,0.0,0.2,0.0,2.55,1.1092,1.55,0.6226,4.0,1.6,True,tetragonal,4mm,99,13.5032,5.7353,0.9494
Ga4 Na12 S12,3,0.0,0.4286,0.0,0.0,0.0,0.0,0.0,0.0,0.0,0.0,0.0,1.65,0.764,0.8,0.372,1.0,0.3499,True,monoclinic,2/m,14,23.2032,2.4014,0.547
Ca2 O10 Si2 Sn2,4,0.0,0.0,0.125,0.625,0.0,0.0,0.125,0.0,0.0,0.0,-2.0,2.44,0.9212,1.2,0.4472,3.0,1.0897,True,monoclinic,2/m,15,12.7183,4.3554,0.7758
Cl16 Ge4,2,0.0,0.0,0.0,0.0,0.8,0.0,0.2,0.0,0.0,0.0,-1.6,1.15,0.46,0.25,0.1,1.0,0.4,True,monoclinic,2/m,14,38.7088,1.8399,0.6584
Nd2 Ni1 O4,3,0.0,0.0,0.0,0.5714,0.0,0.2857,0.0,0.0,0.2857,0.1429,0.0,2.3,1.0387,1.25,0.5579,6.0,2.6186,True,tetragonal,4/mmm,139,13.1432,7.4212,0.5731
Al1 B1 Be1,3,0.0,0.0,0.3333,0.0,0.0,0.0,0.3333,0.0,0.0,0.0,2.6667,0.47,0.2128,0.4,0.1633,1.0,0.4714,True,cubic,-43m,216,10.1855,2.5435,1.0
Co1 O6 Sr2 W1,4,0.0,0.0,0.2,0.6,0.0,0.0,0.0,0.0,0.0,0.2,-0.2,2.49,1.0096,1.4,0.5653,4.0,1.5362,True,tetragonal,4/m,87,12.9302,6.6011,0.9771
Au6 Li2 Na4,3,0.0,0.5,0.0,0.0,0.0,0.0,0.0,0.0,0.0,0.5,2.0,1.61,0.7968,0.45,0.2034,4.0,1.6997,True,hexagonal,6/mmm,194,20.1265,8.8531,0.6359
C8 Mo4 Pr8,3,0.0,0.0,0.0,0.0,0.0,0.4,0.0,0.0,0.4,0.2,0.4,1.42,0.6478,1.15,0.519,6.0,2.6833,True,tetragonal,4/mmm,136,18.0659,7.3859,0.5579
Al4 Ca1,2,0.0,0.0,0.2,0.0,0.0,0.0,0.0,0.0,0.0,0.0,2.8,0.61,0.244,0.55,0.22,1.0,0.4,True,tetragonal,4/mmm,139,21.2629,2.3117,0.6796
Ce2 Ge4,2,0.0,0.0,0.0,0.0,0.0,0.3333,0.6667,0.0,0.3333,0.0,-1.6667,0.89,0.4196,0.6,0.2828,4.0,1.8856,True,tetragonal,4/mmm,141,22.7266,6.9509,0.4768
Ge34 Na4 Rb2,3,0.0,0.15,0.0,0.0,0.0,0.0,0.85,0.0,0.0,0.0,-3.25,1.19,0.3992,1.1,0.2804,2.0,0.3841,True,cubic,m-3m,227,24.7605,4.5816,1.0
Ba8 O16 Si4,3,0.0,0.0,0.2857,0.5714,0.0,0.0,0.1429,0.0,0.0,0.0,-1.1429,2.55,1.1388,1.55,0.6765,4.0,1.7496,True,orthorhombic,mmm,62,16.6341,5.2301,0.565
Br1 Tl1,2,0.0,0.0,0.0,0.0,0.5,0.0,0.0,0.0,0.0,0.0,0.0,1.34,0.67,0.75,0.375,2.0,1.0,True,cubic,m-3m,221,33.3905,7.0689,1.0
N8 O24 Tl8,3,0.0,0.0,0.0,0.6,0.0,0.0,0.0,0.0,0.0,0.0,-1.6,1.82,0.7052,1.3,0.5154,4.0,1.6,True,orthorhombic,mmm,62,16.3728,5.4035,0.5126
C1 Ho3 In1,3,0.0,0.0,0.0,0.0,0.0,0.6,0.0,0.0,0.6,0.0,1.6,1.32,0.5188,1.05,0.4074,6.0,2.4,True,cubic,m-3m,221,34.3738,6.0059,1.0
Hg1 Na2 O2,3,0.0,0.4,0.0,0.4,0.0,0.0,0.0,0.0,0.0,0.2,-0.2,2.51,1.1249,1.2,0.5499,4.0,1.4697,True,tetragonal,4/mmm,139,16.2656,5.6878,0.4824
Cu4 Ge2 Hf3,3,0.0,0.0,0.0,0.0,0.0,0.0,0.2222,0.0,0.0,0.7778,1.3333,0.71,0.3031,0.3,0.1165,2.0,0.9428,True,hexagonal,-6m2,189,15.7065,10.9827,1.6001
Cl16 Li8 Zn4,3,0.0,0.2857,0.0,0.0,0.5714,0.0,0.0,0.0,0.0,0.1429,0.0,2.18,0.9901,0.45,0.2085,2.0,0.6389,True,orthorhombic,mmm,62,21.2214,2.4716,0.4762
Co5 Y1,2,0.0,0.0,0.0,0.0,0.0,0.0,0.0,0.0,0.0,1.0,2.1667,0.66,0.246,0.45,0.1677,1.0,0.3727,True,hexagonal,6/mmm,191,13.8397,7.6704,1.2508
Ga4 Pd4 Tb4,3,0.0,0.0,0.0,0.0,0.0,0.3333,0.0,0.0,0.3333,0.3333,2.6667,2.2,0.9585,0.45,0.1929,4.0,1.6997,True,orthorhombic,mmm,62,20.0586,9.2461,0.5847
Bi2 F2 O2,3,0.0,0.0,0.0,0.3333,0.3333,0.0,0.0,0.0,0.0,0.0,0.0,1.96,0.8266,1.1,0.4967,4.0,1.8856,True,tetragonal,4/mmm,129,14.9427,9.0375,0.6108
Co1 Sb1 Ta1,3,0.0,0.0,0.0,0.0,0.0,0.0,0.3333,0.0,0.0,0.6667,1.3333,0.55,0.2299,0.1,0.0471,2.0,0.8165,True,cubic,-43m,216,17.7208,11.296,1.0
F2 I2 Sr2,3,0.0,0.0,0.3333,0.0,0.6667,0.0,0.0,0.0,0.0,0.0,0.0,3.03,1.2404,1.5,0.6164,3.0,1.4142,True,tetragonal,4/mmm,129,28.6639,4.5094,0.4566
Nb2 O12 Sm2 Sr4,4,0.0,0.0,0.2,0.6,0.0,0.1,0.0,0.0,0.1,0.1,0.0,2.49,1.1259,1.4,0.6168,6.0,2.0125,True,monoclinic,2/m,14,14.9628,5.7098,0.7008
B18 Ba18 Ho6 O54,4,0.0,0.0,0.1875,0.5625,0.0,0.0625,0.1875,0.0,0.0625,0.0,0.0,2.55,1.0582,1.55,0.6142,6.0,1.9961,True,hexagonal,6mm,185,14.6699,5.3296,0.5262
B4 Mn4 O16 Pb4,4,0.0,0.0,0.0,0.5714,0.0,0.0,0.1429,0.0,0.0,0.1429,-0.1429,1.89,0.7558,1.2,0.4503,4.0,1.4569,True,orthorhombic,mmm,62,12.9452,6.1745,0.6935
C4 Fe10,2,0.0,0.0,0.0,0.0,0.0,0.0,0.0,0.0,0.0,0.7143,0.2857,0.72,0.3253,0.7,0.3162,2.0,0.9035,True,monoclinic,2/m,15,9.238,7.787,0.7242
Au1 Ti3,2,0.0,0.0,0.0,0.0,0.0,0.0,0.0,0.0,0.0,1.0,3.75,1.0,0.433,0.05,0.0217,2.0,0.866,True,cubic,m-3m,221,16.9235,8.3541,1.0
Bi1 Br1 Te1,3,0.0,0.0,0.0,0.3333,0.3333,0.0,0.3333,0.0,0.0,0.0,0.0,0.94,0.4255,0.45,0.1841,2.0,0.8165,True,trigonal,3m,156,37.9065,6.0815,0.6303
Li2 Mo6 O16,3,0.0,0.0833,0.0,0.6667,0.0,0.0,0.0,0.0,0.0,0.25,-0.25,2.46,0.7989,0.85,0.4007,3.0,1.299,True,trigonal,3m,160,13.6213,4.2948,1.0
Cl12 K8 Mn2,3,0.0,0.3636,0.0,0.0,0.5455,0.0,0.0,0.0,0.0,0.0909,0.0,2.34,1.1101,1.2,0.561,1.0,0.4979,True,trigonal,-3m,166,33.0202,1.9386,1.0
Na1 O6 S2 Tl3,4,0.0,0.0833,0.0,0.5,0.0,0.0,0.0,0.0,0.0,0.0,-1.0,2.51,0.9079,1.3,0.5722,4.0,1.6394,True,trigonal,-3m,164,18.761,5.8731,0.8296
F18 O12 Y14,3,0.0,0.0,0.0,0.2727,0.4091,0.0,0.0,0.0,0.0,0.3182,0.0,2.76,1.2049,1.3,0.5883,3.0,1.3973,True,orthorhombic,mm2,39,13.8107,4.8604,0.2773
Ca2 Mo2 O12 Sr4,4,0.0,0.0,0.3,0.6,0.0,0.0,0.0,0.0,0.0,0.1,-0.2,2.49,1.1146,1.4,0.6108,3.0,1.3748,True,monoclinic,2/m,14,14.3173,4.7234,0.7018
Cs4 F8 Li4,3,0.0,0.5,0.0,0.0,0.5,0.0,0.0,0.0,0.0,0.0,0.0,3.19,1.549,2.1,0.8641,4.0,1.7321,True,monoclinic,2/m,15,18.8313,3.9205,0.7437
Cr4 Fe4 P4,3,0.0,0.0,0.0,0.0,0.0,0.0,0.0,0.0,0.0,0.6667,0.6667,0.53,0.221,0.4,0.1886,1.0,0.4714,True,orthorhombic,mmm,62,11.108,6.9172,0.5391
O4 S4 Zr4,3,0.0,0.0,0.0,0.3333,0.0,0.0,0.0,0.0,0.0,0.3333,0.0,2.11,0.8663,0.95,0.3894,3.0,1.2472,True,cubic,23,198,16.0306,4.8094,1.0
Al2 Li3,2,0.0,0.6,0.0,0.0,0.0,0.0,0.0,0.0,0.0,0.0,1.8,0.63,0.3086,0.2,0.098,1.0,0.4899,True,trigonal,-3m,166,16.1424,1.5386,1.0
Cu5 Er1,2,0.0,0.0,0.0,0.0,0.0,0.1667,0.0,0.0,0.1667,0.8333,2.1667,0.66,0.246,0.4,0.1491,4.0,1.4907,True,cubic,-43m,216,14.2572,9.4144,1.0
Mg2 Ru2 Sn8,3,0.0,0.0,0.1667,0.0,0.0,0.0,0.0,0.0,0.0,0.1667,-1.8333,0.89,0.2745,0.2,0.0624,2.0,0.7454,True,tetragonal,4/mmm,140,22.2223,7.4751,0.9158
Rb2 Te4 Y2,3,0.0,0.25,0.0,0.5,0.0,0.0,0.5,0.0,0.0,0.25,0.0,1.28,0.5582,0.95,0.3895,0.0,0.0,True,hexagonal,6/mmm,194,38.0439,4.6875,0.2636
Dy2 Sb2 Zr2,3,0.0,0.0,0.0,0.0,0.0,0.3333,0.3333,0.0,0.3333,0.3333,1.3333,0.83,0.3681,0.3,0.1247,3.0,1.4142,True,tetragonal,4/mmm,139,25.3884,8.1862,0.4826
Cr1 O2,2,0.0,0.0,0.0,0.6667,0.0,0.0,0.0,0.0,0.0,0.3333,-0.3333,1.78,0.8391,0.8,0.3771,2.0,0.9428,True,trigonal,-3m,166,12.1962,3.812,1.0
Cl72 Nb8 Se8,3,0.0,0.0,0.0,0.0909,0.8182,0.0,0.0,0.0,0.0,0.0909,-0.5455,1.56,0.4649,0.45,0.1322,2.0,0.6166,True,monoclinic,2/m,14,32.1693,2.3038,0.637
Li2 Mn4 O20 P6,4,0.0,0.0625,0.0,0.625,0.0,0.0,0.0,0.0,0.0,0.125,-1.5,2.46,0.8531,0.85,0.3211,2.0,0.7043,True,monoclinic,2/m,15,14.8277,2.5879,0.9164
Rh6 Sn10 Y4,3,0.0,0.0,0.0,0.0,0.0,0.0,0.0,0.0,0.0,0.5,-0.5,1.06,0.3709,0.45,0.1609,0.0,0.0,True,orthorhombic,mm2,36,21.5095,8.3382,0.3308
In1 Yb1,2,0.0,0.0,0.0,0.0,0.0,0.5,0.0,0.0,0.5,0.0,3.0,1.78,0.89,0.2,0.1,3.0,1.5,True,cubic,m-3m,221,28.1046,8.5039,1.0
Al8 Br28 K4,3,0.0,0.1,0.0,0.0,0.7,0.0,0.0,0.0,0.0,0.0,0.0,2.14,0.7669,1.05,0.3108,1.0,0.4,True,monoclinic,2/m,14,38.9227,2.7833,0.8776
F4 Mg2,2,0.0,0.0,0.3333,0.0,0.6667,0.0,0.0,0.0,0.0,0.0,0.0,2.67,1.2587,1.0,0.4714,1.0,0.4714,True,tetragonal,4/mmm,136,11.3644,3.0345,0.6593
Br2 Mn1,2,0.0,0.0,0.0,0.0,0.6667,0.0,0.0,0.0,0.0,0.3333,0.0,1.41,0.6647,0.25,0.1179,0.0,0.0,True,trigonal,-3m,164,31.0694,3.8258,0.5503
Ho1 O2 Rb1,3,0.0,0.25,0.0,0.5,0.0,0.25,0.0,0.0,0.25,0.0,0.0,2.62,1.2162,1.75,0.7554,6.0,2.4875,True,trigonal,-3m,166,17.3224,6.7677,1.0
Ga41 V8,2,0.0,0.0,0.0,0.0,0.0,0.0,0.0,0.0,0.0,0.1633,3.3265,0.18,0.0665,0.05,0.0185,0.0,0.0,True,trigonal,-3,148,17.2426,6.4193,1.0
Gd2 Ge2 Sc2,3,0.0,0.0,0.0,0.0,0.0,0.3333,0.3333,0.0,0.3333,0.3333,0.6667,0.81,0.3503,0.55,0.2273,4.0,1.8856,True,tetragonal,4/mmm,139,23.8399,6.3814,0.5063
Ag24 Ba4 O16,3,0.0,0.0,0.0909,0.3636,0.0,0.0,0.0,0.0,0.0,0.5455,0.0,2.55,0.849,1.55,0.5411,4.0,1.5374,True,orthorhombic,mmm,52,18.4936,6.9263,0.5218
Pb1 Pr3,2,0.0,0.0,0.0,0.0,0.0,0.75,0.0,0.0,0.75,0.0,2.75,1.2,0.5196,0.05,0.0217,2.0,0.866,True,cubic,m-3m,221,32.1108,8.1438,1.0
La16 S24,2,0.0,0.0,0.0,0.0,0.0,0.4,0.0,0.0,0.4,0.4,0.0,1.48,0.725,0.95,0.4654,5.0,2.4495,True,tetragonal,-42m,122,25.1313,4.9425,2.5937
P2 Ta2,2,0.0,0.0,0.0,0.0,0.0,0.0,0.0,0.0,0.0,0.5,1.0,0.69,0.345,0.45,0.225,3.0,1.5,True,tetragonal,4/mmm,141,16.0386,10.9705,0.6066
Al4 Ca2,2,0.0,0.0,0.3333,0.0,0.0,0.0,0.0,0.0,0.0,0.0,2.6667,0.61,0.2876,0.55,0.2593,1.0,0.4714,True,cubic,m-3m,227,21.4626,2.4253,1.0
Ge8 Na8 S20,3,0.0,0.2222,0.0,0.0,0.0,0.0,0.2222,0.0,0.0,0.0,-1.7778,1.65,0.6587,0.8,0.3189,1.0,0.4157,True,orthorhombic,mmm,63,25.4414,2.5497,0.8627
Mg1 Pd3,2,0.0,0.0,0.25,0.0,0.0,0.0,0.0,0.0,0.0,0.75,2.0,0.89,0.3854,0.1,0.0433,2.0,0.866,True,cubic,m-3m,221,15.7125,9.0772,1.0
Pt3 Te4,2,0.0,0.0,0.0,0.5714,0.0,0.0,0.5714,0.0,0.0,0.4286,-0.2857,0.18,0.0891,0.05,0.0247,1.0,0.4949,True,monoclinic,2/m,12,33.9945,7.6457,0.7688
Co4 U2,2,0.3333,0.0,0.0,0.0,0.0,0.0,0.0,0.0,0.3333,0.6667,3.3333,0.5,0.2357,0.4,0.1886,5.0,2.357,True,cubic,m-3m,227,13.771,14.3049,1.0
Fe4 O8 Zn2,3,0.0,0.0,0.0,0.5714,0.0,0.0,0.0,0.0,0.0,0.4286,-0.2857,1.79,0.8283,0.8,0.388,2.0,0.9897,True,trigonal,3m,160,11.1808,5.1153,0.9987