formula,numberOfSpecies,fracActinoid,fracAlkali,fracAlkaline,fracChalcogen,fracHalogen,fracLanthanoid,fracMetalloid,fracNobleGas,fracRareEarth,fracTransitionMetal,electronsPerAtom,electronegativityRange,electronegativityStd,radiiRange,radiiStd,rowRange,rowStd,ordered,crystalSystem,pointGroup,spaceGroupNumber,volumePerSite,density,c_a
O12 Pb6 S2,3,0.0,0.0,0.0,0.6,0.0,0.0,0.0,0.0,0.0,0.0,-0.8,1.11,0.5177,1.2,0.5367,4.0,1.7916,True,monoclinic,2/m,11,17.5201,7.1052,0.7068
C2 Cr4 Ge2,3,0.0,0.0,0.0,0.0,0.0,0.0,0.25,0.0,0.0,0.5,-0.5,0.89,0.3641,0.7,0.288,2.0,0.866,True,hexagonal,6/mmm,194,11.1979,6.9934,0.2441
Sc10 Sn6,2,0.0,0.0,0.0,0.0,0.0,0.0,0.0,0.0,0.0,0.625,0.375,0.6,0.2905,0.15,0.0726,1.0,0.4841,True,hexagonal,6/mmm,193,23.621,5.1047,1.3863
Mn4 N8 Si4,3,0.0,0.0,0.0,0.0,0.0,0.0,0.25,0.0,0.0,0.25,-2.0,1.49,0.669,0.75,0.3182,2.0,0.8292,True,orthorhombic,mm2,33,11.1286,4.1421,0.7843
C1 I5 Y4,3,0.0,0.0,0.0,0.0,0.5,0.0,0.0,0.0,0.0,0.4,0.3,1.44,0.6972,1.1,0.3239,3.0,0.9,True,monoclinic,2/m,12,32.2277,5.1636,0.4044
Ba2 Cu4 Ho1 O8,4,0.0,0.0,0.1333,0.5333,0.0,0.0667,0.0,0.0,0.0667,0.2667,-0.0667,2.55,1.0093,1.55,0.57,6.0,1.8571,True,orthorhombic,mmm,65,13.8355,6.5752,0.2796
Dy1 Li1 S2,3,0.0,0.25,0.0,0.0,0.0,0.25,0.0,0.0,0.25,0.0,0.0,1.6,0.7448,0.75,0.3182,6.0,2.3452,True,trigonal,-3m,166,20.4667,4.7376,1.0
Nb1 O1,2,0.0,0.0,0.0,0.5,0.0,0.0,0.0,0.0,0.0,0.5,1.5,1.84,0.92,0.85,0.425,3.0,1.5,True,cubic,m-3m,225,11.475,7.8799,1.0
F28 Ru4 Xe4,3,0.0,0.0,0.0,0.0,0.7778,0.0,0.0,0.1111,0.0,0.1111,-1000,1.78,0.6636,-1000,-1000,3.0,1.2472,True,monoclinic,2/m,14,19.7275,3.417,0.638
Ba3 Mg1 O9 Ta2,4,0.0,0.0,0.2667,0.6,0.0,0.0,0.0,0.0,0.0,0.1333,0.0,2.55,1.1294,1.55,0.6303,4.0,1.8547,True,trigonal,-3m,164,14.152,7.3701,0.814
Co8 Ga32 Yb4,3,0.0,0.0,0.0,0.0,0.0,0.0909,0.0,0.0,0.0909,0.1818,2.8182,1.88,0.525,0.45,0.1279,4.0,1.1499,True,orthorhombic,mmm,55,16.144,7.9359,0.2775
Al1 N1 Nd3,3,0.0,0.0,0.0,0.0,0.0,0.6,0.0,0.0,0.6,0.0,1.8,1.9,0.7359,1.2,0.48,6.0,2.7129,True,cubic,m-3m,221,34.007,4.6262,1.0
B2 Co2 Nd1,3,0.0,0.0,0.0,0.0,0.0,0.2,0.4,0.0,0.2,0.4,2.6,0.9,0.3357,1.0,0.3742,6.0,2.1909,True,tetragonal,4/mmm,139,12.7986,7.3624,0.6413
H4 O20 P4 Zn8,4,0.0,0.0,0.0,0.5556,0.0,0.0,0.0,0.0,0.0,0.2222,-1.1111,1.79,0.7756,1.1,0.356,3.0,0.9558,True,orthorhombic,mmm,58,11.6132,3.8574,0.7221
Cl4 I4 Ta2,3,0.0,0.0,0.0,0.0,0.8,0.0,0.0,0.0,0.0,0.2,0.2,1.66,0.6067,0.45,0.2049,3.0,1.2,True,orthorhombic,mmm,71,36.5361,4.5964,1.0
Li8 Sr12,2,0.0,0.4,0.6,0.0,0.0,0.0,0.0,0.0,0.0,0.0,1.6,0.03,0.0147,0.55,0.2694,3.0,1.4697,True,tetragonal,4/mmm,136,41.2287,2.2292,0.8989
K12 P4 Se16,3,0.0,0.375,0.0,0.5,0.0,0.0,0.0,0.0,0.0,0.0,-1.0,1.73,0.8107,1.2,0.525,1.0,0.3307,True,orthorhombic,mmm,62,32.4934,2.9647,0.8634
Si4 Th4,2,0.5,0.0,0.0,0.0,0.0,0.0,0.5,0.0,0.5,0.0,0.0,0.6,0.3,0.7,0.35,6.0,3.0,True,orthorhombic,mmm,62,24.2716,8.8982,0.5149
K32 Si32,2,0.0,0.5,0.0,0.0,0.0,0.0,0.5,0.0,0.0,0.0,-1.5,1.08,0.54,1.1,0.55,1.0,0.5,True,cubic,-43m,218,32.0028,1.743,1.0
Cu1 I4,2,0.0,0.0,0.0,0.0,0.8,0.0,0.0,0.0,0.0,0.2,-0.4,0.76,0.304,0.05,0.02,1.0,0.4,True,monoclinic,m,8,35.3543,5.3653,1.1579
Cr4 Ga2 N2,3,0.0,0.0,0.0,0.0,0.0,0.0,0.0,0.0,0.0,0.5,1.5,1.38,0.5792,0.75,0.313,2.0,0.866,True,hexagonal,6/mmm,194,11.4299,6.8181,0.2407
B4 Ba12 O48 P12,4,0.0,0.0,0.1579,0.6316,0.0,0.0,0.0526,0.0,0.0,0.0,-1.2632,2.55,0.9606,1.55,0.5521,4.0,1.4356,True,orthorhombic,mmm,73,15.5037,3.9895,0.5175
As4 B2 Rb6,3,0.0,0.5,0.0,0.0,0.0,0.0,0.5,0.0,0.0,0.0,0.0,1.36,0.6583,1.5,0.6576,3.0,1.0672,True,monoclinic,2/m,15,35.9969,3.2065,0.7162
F48 Li12 Na12 Ti8,4,0.0,0.3,0.0,0.0,0.6,0.0,0.0,0.0,0.0,0.1,0.1,3.05,1.4194,1.3,0.5358,2.0,0.6538,True,cubic,m-3m,230,12.6524,2.7135,1.0
Si3 U1,2,0.25,0.0,0.0,0.0,0.0,0.0,0.75,0.0,0.25,0.0,-1.5,0.52,0.2252,0.65,0.2815,6.0,2.5981,True,cubic,m-3m,221,16.2937,8.2112,1.0
C4 Dy2 K2 O12,4,0.0,0.1,0.0,0.6,0.0,0.1,0.0,0.0,0.1,0.0,-1.6,2.62,0.9484,1.6,0.5507,6.0,1.833,True,monoclinic,2/m,15,13.5541,3.9402,0.9084
C8 H24 O24 Zn4,4,0.0,0.0,0.0,0.4,0.0,0.0,0.0,0.0,0.0,0.0667,-1.6,1.79,0.6289,1.1,0.2863,3.0,0.7717,True,monoclinic,2/m,14,9.8903,2.1432,0.7723
Hf2 S6,2,0.0,0.0,0.0,0.0,0.0,0.0,0.0,0.0,0.0,0.25,-0.5,1.28,0.5543,0.55,0.2382,3.0,1.299,True,monoclinic,2/m,11,22.3949,5.0918,0.3721
In4 O16 P4,3,0.0,0.0,0.0,0.6667,0.0,0.0,0.0,0.0,0.0,0.0,-1.3333,1.66,0.696,0.95,0.3556,3.0,1.1055,True,orthorhombic,mmm,62,12.9016,4.5003,0.5418
Sn8 Sr2,2,0.0,0.0,0.2,0.0,0.0,0.0,0.0,0.0,0.0,0.0,-2.8,1.01,0.404,0.55,0.22,0.0,0.0,True,orthorhombic,mmm,63,29.663,6.2973,0.5109
O4 Pt2,2,0.0,0.0,0.0,0.6667,0.0,0.0,0.0,0.0,0.0,0.3333,-0.6667,1.16,0.5468,0.75,0.3536,4.0,1.8856,True,cubic,m-3m,224,15.0239,8.3662,1.0
Ag1 Er1,2,0.0,0.0,0.0,0.0,0.0,0.5,0.0,0.0,0.5,0.5,2.0,0.69,0.345,0.15,0.075,3.0,1.5,True,cubic,m-3m,221,23.5734,9.6902,1.0
Bi2 Cl2 F16,3,0.0,0.0,0.0,0.0,0.9,0.0,0.0,0.0,0.0,0.0,-0.6,1.96,0.6117,1.1,0.347,4.0,1.2042,True,triclinic,-1,2,17.1574,3.8367,0.501
Cu2 Ge2 Th1,3,0.2,0.0,0.0,0.0,0.0,0.0,0.4,0.0,0.2,0.4,0.0,0.71,0.2666,0.55,0.2049,5.0,2.0,True,tetragonal,4/mmm,139,17.8256,9.3977,0.7152
Ge6 Hf1 Mn6,3,0.0,0.0,0.0,0.0,0.0,0.0,0.4615,0.0,0.0,0.5385,-0.6154,0.71,0.2553,0.3,0.0937,2.0,0.5329,True,hexagonal,6/mmm,191,13.5329,8.9098,0.6207
Fe4 Nd2,2,0.0,0.0,0.0,0.0,0.0,0.3333,0.0,0.0,0.3333,0.6667,2.3333,0.69,0.3253,0.45,0.2121,4.0,1.8856,True,cubic,m-3m,227,17.1897,8.2411,1.0
F12 Mg4 Na4,3,0.0,0.2,0.2,0.0,0.6,0.0,0.0,0.0,0.0,0.0,0.0,3.05,1.4063,1.3,0.5713,1.0,0.4899,True,orthorhombic,mmm,62,11.7436,2.9493,0.6983
Ge6 Ta10,2,0.0,0.0,0.0,0.0,0.0,0.0,0.375,0.0,0.0,0.625,1.625,0.51,0.2469,0.2,0.0968,2.0,0.9682,True,tetragonal,4/mmm,140,16.8516,13.8282,0.8689
O5 S2 Sm2 Ti2,4,0.0,0.0,0.0,0.4545,0.0,0.1818,0.0,0.0,0.1818,0.1818,0.0,2.27,0.9441,1.25,0.4807,6.0,2.1856,True,tetragonal,4/mmm,139,15.5927,5.2335,0.3222
Ca2 F8 Zn2,3,0.0,0.0,0.1667,0.0,0.6667,0.0,0.0,0.0,0.0,0.1667,0.0,2.98,1.2656,1.3,0.5231,2.0,0.9428,True,triclinic,-1,2,13.3906,3.7508,0.7908
Co2 Nd2 Si2,3,0.0,0.0,0.0,0.0,0.0,0.3333,0.3333,0.0,0.3333,0.3333,0.3333,0.76,0.3536,0.75,0.3118,5.0,2.1602,True,tetragonal,4/mmm,129,19.1338,6.69,0.5638
Cs1 Eu1 F3,3,0.0,0.2,0.0,0.0,0.6,0.2,0.0,0.0,0.2,0.0,0.0,3.98,1.774,2.1,0.8777,6.0,2.5298,True,cubic,m-3m,221,22.6676,5.0087,1.0
Rb4 S14 Sb8,3,0.0,0.1538,0.0,0.0,0.0,0.0,0.3077,0.0,0.0,0.0,-1.8462,1.76,0.6122,1.35,0.4721,2.0,0.997,True,monoclinic,2/m,14,30.6509,3.6774,0.5802
Mo4 O8,2,0.0,0.0,0.0,0.6667,0.0,0.0,0.0,0.0,0.0,0.3333,0.0,1.28,0.6034,0.85,0.4007,3.0,1.4142,True,cubic,m-3m,227,15.7009,4.5103,1.0
Cr2 O24 P8,3,0.0,0.0,0.0,0.7059,0.0,0.0,0.0,0.0,0.0,0.0588,-1.9412,1.78,0.6285,0.8,0.2353,2.0,0.5882,True,monoclinic,2/m,12,15.9918,2.2471,0.4904
Ge4 K8 Se16,3,0.0,0.2857,0.0,0.5714,0.0,0.0,0.1429,0.0,0.0,0.0,-1.4286,1.73,0.7551,1.05,0.4665,0.0,0.0,True,monoclinic,2/m,14,32.66,3.3896,0.6931
S22 Ta4 Tl8,3,0.0,0.0,0.0,0.0,0.0,0.0,0.0,0.0,0.0,0.1176,-0.4706,1.08,0.4791,0.9,0.3799,3.0,1.4337,True,triclinic,-1,2,28.4242,5.2652,0.6085
Pt4 Te6 Tl2,3,0.0,0.0,0.0,0.5,0.0,0.0,0.5,0.0,0.0,0.3333,-0.1667,0.66,0.2209,0.55,0.1951,1.0,0.5,True,trigonal,-3m,164,28.4753,9.4991,1.3313
Co4 Mo8 S16,3,0.0,0.0,0.0,0.0,0.0,0.0,0.0,0.0,0.0,0.4286,0.2857,0.7,0.2683,0.45,0.2085,2.0,0.8806,True,triclinic,1,1,15.3204,5.8695,0.5482
Li2 O14 P4 Sb2,4,0.0,0.0909,0.0,0.6364,0.0,0.0,0.0909,0.0,0.0,0.0,-2.0,2.46,0.8226,0.85,0.3299,3.0,0.8907,True,triclinic,-1,2,12.9765,3.5207,0.9944
Cl2 Gd2 O2,3,0.0,0.0,0.0,0.3333,0.3333,0.3333,0.0,0.0,0.3333,0.0,0.0,2.24,0.9965,1.2,0.4989,6.0,2.6247,True,tetragonal,4/mmm,129,17.7236,6.5178,0.5883
Cl96 P12 Re8,3,0.0,0.0,0.0,0.0,0.8276,0.0,0.0,0.0,0.0,0.069,-0.8621,1.26,0.4144,0.35,0.0887,3.0,0.7602,True,tetragonal,4/mmm,135,29.9726,2.5145,0.8515
Cl24 Co4 Fe4 H72 N24,5,0.0,0.0,0.0,0.0,0.1875,0.0,0.0,0.0,0.0,0.0625,-1.1875,1.33,0.4613,1.15,0.3645,3.0,0.9682,True,cubic,m-3,205,11.5736,1.9265,1.0
C2 Cu2 Li6 O14 P2,5,0.0,0.2308,0.0,0.5385,0.0,0.0,0.0,0.0,0.0,0.0769,-1.2308,2.46,1.018,0.85,0.371,2.0,0.5756,True,monoclinic,2/m,11,10.358,2.9516,0.6005
Nd2 O6,2,0.0,0.0,0.0,0.75,0.0,0.25,0.0,0.0,0.25,0.0,-0.75,2.3,0.9959,1.25,0.5413,6.0,2.5981,True,monoclinic,2/m,12,11.8949,6.7092,0.5147
Ba6 P28,2,0.0,0.0,0.1765,0.0,0.0,0.0,0.0,0.0,0.0,0.0,-2.1176,1.3,0.4956,1.15,0.4384,3.0,1.1437,True,monoclinic,2/m,14,26.4881,3.1183,0.4957
K4 O12 P4,3,0.0,0.2,0.0,0.6,0.0,0.0,0.0,0.0,0.0,0.0,-1.6,2.62,1.0423,1.6,0.6197,2.0,0.8,True,orthorhombic,mmm,62,17.1255,2.2897,0.3517
Ba6 Ir4 Na2 O18,4,0.0,0.0667,0.2,0.6,0.0,0.0,0.0,0.0,0.0,0.1333,-0.3333,2.55,1.1025,1.55,0.6414,4.0,1.8547,True,hexagonal,6/mmm,194,14.9917,7.114,0.4082
Ge8 Lu12 O34,3,0.0,0.0,0.0,0.6296,0.0,0.2222,0.1481,0.0,0.2222,0.0,-1.1852,2.17,0.9315,1.15,0.4824,4.0,1.6563,True,monoclinic,2/m,13,13.7418,7.2161,0.6294
In2 Li3,2,0.0,0.6,0.0,0.0,0.0,0.0,0.0,0.0,0.0,0.0,1.8,0.8,0.3919,0.1,0.049,3.0,1.4697,True,trigonal,-3m,166,19.2307,4.3254,1.0
C8 Cl16 O8,3,0.0,0.0,0.0,0.25,0.5,0.0,0.0,0.0,0.0,0.0,-2.0,0.89,0.3253,0.4,0.1785,1.0,0.5,True,tetragonal,4/m,88,26.3388,1.5591,0.4852
Ba2 Ni4 Si4,3,0.0,0.0,0.2,0.0,0.0,0.0,0.4,0.0,0.0,0.4,-0.4,1.02,0.406,1.05,0.3865,3.0,1.0954,True,orthorhombic,mmm,63,19.9325,5.1798,0.3685
F15 Nb6,2,0.0,0.0,0.0,0.0,0.7143,0.0,0.0,0.0,0.0,0.2857,0.7143,2.38,1.0752,0.95,0.4292,3.0,1.3553,True,cubic,m-3m,229,13.8992,4.7925,1.0
Dy1 O2 Rb1,3,0.0,0.25,0.0,0.5,0.0,0.25,0.0,0.0,0.25,0.0,0.0,2.62,1.2182,1.75,0.7554,6.0,2.4875,True,trigonal,-3m,166,17.5346,6.6283,1.0
F8 Li4 Rb4,3,0.0,0.5,0.0,0.0,0.5,0.0,0.0,0.0,0.0,0.0,0.0,3.16,1.541,1.85,0.7689,3.0,1.299,True,monoclinic,2/m,15,16.6934,3.243,0.7457
C2 Nb4 S2,3,0.0,0.0,0.0,0.0,0.0,0.0,0.0,0.0,0.0,0.5,1.0,0.98,0.4826,0.75,0.3182,3.0,1.299,True,hexagonal,6/mmm,194,14.0156,6.8092,0.2887
Pt3 Tl3,2,0.0,0.0,0.0,0.0,0.0,0.0,0.0,0.0,0.0,0.5,1.5,0.66,0.33,0.55,0.275,0.0,0.0,True,hexagonal,6/mmm,191,25.3904,13.0626,1.7545
Ga4 Li4 O8,3,0.0,0.25,0.0,0.5,0.0,0.0,0.0,0.0,0.0,0.0,0.0,2.46,1.0638,0.85,0.3911,2.0,0.866,True,orthorhombic,mm2,33,11.2381,4.014,0.7889
C12 Cr2 N12 Na2 Rb4,5,0.0,0.1875,0.0,0.0,0.0,0.0,0.0,0.0,0.0,0.0625,-2.25,2.22,0.8011,1.7,0.5979,3.0,1.0588,True,monoclinic,2/m,14,19.9914,2.0871,0.6865
Ca6 P6,2,0.0,0.0,0.5,0.0,0.0,0.0,0.0,0.0,0.0,0.0,-0.5,1.19,0.595,0.8,0.4,1.0,0.5,True,hexagonal,-6m2,189,24.2406,2.4336,1.3392
O24 Y16,2,0.0,0.0,0.0,0.6,0.0,0.0,0.0,0.0,0.0,0.4,0.0,2.22,1.0876,1.2,0.5879,3.0,1.4697,True,cubic,m-3,206,15.3297,4.892,1.0
Ru4 Si4 Tm4,3,0.0,0.0,0.0,0.0,0.0,0.3333,0.3333,0.0,0.3333,0.3333,0.6667,0.95,0.3965,0.65,0.2718,5.0,2.0548,True,orthorhombic,mmm,62,17.5552,9.3987,0.5997
As1 Sc1,2,0.0,0.0,0.0,0.0,0.0,0.0,0.5,0.0,0.0,0.5,0.0,0.82,0.41,0.45,0.225,0.0,0.0,True,cubic,m-3m,225,20.6786,4.8132,1.0
La8 P16,2,0.0,0.0,0.0,0.0,0.0,0.3333,0.0,0.0,0.3333,0.3333,-1.0,1.09,0.5138,0.95,0.4478,5.0,2.357,True,monoclinic,m,9,23.0675,4.8195,0.9408
Ba2 Ho1 O6 Sb1,4,0.0,0.0,0.2,0.6,0.0,0.1,0.1,0.0,0.1,0.0,-0.8,2.55,1.1069,1.55,0.6518,6.0,2.1932,True,cubic,m-3m,225,15.3768,7.0986,1.0
Cu2 Dy2 Si2,3,0.0,0.0,0.0,0.0,0.0,0.3333,0.3333,0.0,0.3333,0.3333,0.3333,0.68,0.3206,0.65,0.2677,5.0,2.1602,True,hexagonal,6/mmm,194,18.5484,7.5837,0.5551
Ho4 Mn4 Si4,3,0.0,0.0,0.0,0.0,0.0,0.3333,0.3333,0.0,0.3333,0.3333,0.3333,0.67,0.2736,0.65,0.2656,5.0,2.1602,True,orthorhombic,mmm,62,17.918,7.6596,0.5377
B6 C4 Nb8,3,0.0,0.0,0.0,0.0,0.0,0.0,0.3333,0.0,0.0,0.4444,2.3333,0.95,0.3702,0.75,0.3325,3.0,1.4907,True,orthorhombic,mmm,63,10.8094,7.3068,0.1658
Cl8 Cu8 Hg8 S8,4,0.0,0.0,0.0,0.0,0.25,0.0,0.0,0.0,0.0,0.5,0.0,1.26,0.5049,0.5,0.219,3.0,1.2247,True,orthorhombic,mmm,55,23.2881,5.9121,0.2205
Mn2 O8 P2,3,0.0,0.0,0.0,0.6667,0.0,0.0,0.0,0.0,0.0,0.1667,-1.5,1.89,0.7628,0.8,0.3055,2.0,0.7638,True,orthorhombic,mm2,43,12.1114,3.4256,1.0
Hf1 Ru1 Sb1,3,0.0,0.0,0.0,0.0,0.0,0.0,0.3333,0.0,0.0,0.6667,1.3333,0.9,0.3937,0.25,0.1027,1.0,0.4714,True,cubic,-43m,216,21.021,10.5673,1.0
Er4 Mn8 O20,3,0.0,0.0,0.0,0.625,0.0,0.125,0.0,0.0,0.125,0.25,-0.375,2.2,0.9692,1.15,0.4551,6.0,1.9843,True,orthorhombic,mmm,55,11.2424,6.5937,0.6778
Ag10 Rb2 Se6,3,0.0,0.1111,0.0,0.3333,0.0,0.0,0.0,0.0,0.0,0.5556,0.0,1.73,0.508,1.2,0.3543,1.0,0.4714,True,tetragonal,4/mmm,125,23.6636,6.7186,0.5305
F18 K2 Te4,3,0.0,0.0833,0.0,0.1667,0.75,0.0,0.1667,0.0,0.0,0.0,-1.0,3.16,1.0434,1.7,0.5392,3.0,1.1785,True,triclinic,-1,2,17.3896,3.7025,0.5162
As2 La2 Rh2,3,0.0,0.0,0.0,0.0,0.0,0.3333,0.3333,0.0,0.3333,0.6667,1.0,1.18,0.5342,0.8,0.3399,4.0,1.6997,True,tetragonal,4mm,109,22.3312,7.8507,0.5175
F7 K1 Sc2,3,0.0,0.1,0.0,0.0,0.7,0.0,0.0,0.0,0.0,0.2,0.0,3.16,1.2907,1.7,0.6155,2.0,0.9165,True,orthorhombic,mmm,65,14.5181,2.9967,0.6479
Ge2 Rh2 U1,3,0.2,0.0,0.0,0.0,0.0,0.0,0.4,0.0,0.2,0.4,0.8,0.9,0.329,0.5,0.1855,5.0,1.8547,True,tetragonal,4/mmm,139,17.7124,11.046,0.6824
Ag8 P4 S14,3,0.0,0.0,0.0,0.0,0.0,0.0,0.0,0.0,0.0,0.3077,-1.2308,0.65,0.2929,0.6,0.2769,2.0,0.9231,True,monoclinic,2/m,15,22.2651,4.1184,0.3943
I5 Ta2,2,0.0,0.0,0.0,0.0,0.7143,0.0,0.0,0.0,0.0,0.2857,0.7143,1.16,0.524,0.05,0.0226,1.0,0.4518,True,triclinic,1,1,50.9783,4.6367,1.0032
Al2 Ir1 Li1,3,0.0,0.25,0.0,0.0,0.0,0.0,0.0,0.0,0.0,0.25,2.5,1.22,0.4315,0.2,0.0829,4.0,1.5,True,cubic,m-3m,225,13.8108,7.6085,1.0
Cs4 Mn4 O16,3,0.0,0.1667,0.0,0.6667,0.0,0.0,0.0,0.0,0.0,0.1667,-0.8333,2.65,1.0923,2.0,0.7454,4.0,1.5275,True,orthorhombic,mmm,62,20.8831,3.3376,0.5869
O48 Re12 Tl12,3,0.0,0.0,0.0,0.6667,0.0,0.0,0.0,0.0,0.0,0.1667,-0.5,1.82,0.7961,1.3,0.5086,4.0,1.8856,True,monoclinic,2/m,14,19.6283,6.4096,0.3273
K2 O2 Tl2,3,0.0,0.3333,0.0,0.3333,0.0,0.0,0.0,0.0,0.0,0.0,0.0,2.62,1.0963,1.6,0.6944,4.0,1.633,True,monoclinic,2/m,12,24.7919,5.7933,0.543
Au4 I4 Te4,3,0.0,0.0,0.0,0.3333,0.3333,0.0,0.3333,0.0,0.0,0.3333,0.0,0.56,0.2407,0.05,0.0236,1.0,0.4714,True,monoclinic,2/m,14,37.0058,6.7529,0.9557
Na2 O24 Sb6 Sr8,4,0.0,0.05,0.2,0.6,0.0,0.0,0.15,0.0,0.0,0.0,-1.2,2.51,1.0736,1.4,0.5948,3.0,1.4107,True,monoclinic,2/m,14,13.9017,5.5588,0.9967
As20 S32 Tl4,3,0.0,0.0,0.0,0.0,0.0,0.0,0.3571,0.0,0.0,0.0,-2.1429,0.96,0.2798,0.9,0.228,3.0,0.8207,True,monoclinic,2/m,14,26.445,3.7474,0.5102
Pr1,1,0.0,0.0,0.0,0.0,0.0,1.0,0.0,0.0,1.0,0.0,3.0,0.0,0.0,0.0,0.0,0.0,0.0,True,cubic,m-3m,229,36.3746,6.4326,1.0
F4 H12 O4,3,0.0,0.0,0.0,0.2,0.2,0.0,0.0,0.0,0.0,0.0,-1.2,1.78,0.7592,0.35,0.1503,1.0,0.4899,True,orthorhombic,mmm,62,8.454,1.4936,0.6657
I2 N6 Rb4,3,0.0,0.3333,0.0,0.0,0.1667,0.0,0.0,0.0,0.0,0.0,-1.3333,2.22,1.0107,1.7,0.7607,3.0,1.5,True,tetragonal,4/mmm,127,28.0203,3.3568,0.7748
Sm1,1,0.0,0.0,0.0,0.0,0.0,1.0,0.0,0.0,1.0,0.0,3.0,0.0,0.0,0.0,0.0,0.0,0.0,True,tetragonal,4/mmm,139,34.2611,7.2875,1.0008
Dy1 Tl3,2,0.0,0.0,0.0,0.0,0.0,0.25,0.0,0.0,0.25,0.0,1.5,0.4,0.1732,0.15,0.065,2.0,0.866,True,cubic,m-3m,221,27.2746,11.8058,1.0
Bi1 Te2 Tl1,3,0.0,0.0,0.0,0.5,0.0,0.0,0.5,0.0,0.0,0.0,0.0,0.48,0.199,0.5,0.2046,1.0,0.5,True,trigonal,-3m,166,36.3189,7.6419,1.0
B2 H8 K1 Na1,4,0.0,0.1667,0.0,0.0,0.0,0.0,0.1667,0.0,0.0,0.0,0.0,1.38,0.4859,1.95,0.6509,3.0,0.9538,True,trigonal,-3m,166,10.668,1.1904,1.0
Al3 Dy1,2,0.0,0.0,0.0,0.0,0.0,0.25,0.0,0.0,0.25,0.0,3.0,0.39,0.1689,0.5,0.2165,5.0,2.1651,True,tetragonal,4/mmm,139,20.1306,5.0203,0.766
O56 Sr20 U12,3,0.1364,0.0,0.2273,0.6364,0.0,0.0,0.0,0.0,0.1364,0.0,-0.0,2.49,1.1272,1.4,0.6326,7.0,2.4596,True,orthorhombic,mmm,61,16.3719,6.3446,0.9895
Ag2 Sb2 Se4,3,0.0,0.0,0.0,0.5,0.0,0.0,0.25,0.0,0.0,0.25,-1.5,0.62,0.2832,0.45,0.1949,1.0,0.5,True,monoclinic,2/m,12,24.2251,6.6412,1.1359
La2 Na2 O8 Ti2,4,0.0,0.1429,0.0,0.5714,0.0,0.1429,0.0,0.0,0.1429,0.2857,0.0,2.51,1.1261,1.35,0.5731,6.0,2.0504,True,tetragonal,4/mmm,129,13.5414,4.7957,0.2868
Br12 Mo12 S6,3,0.0,0.0,0.0,0.0,0.4,0.0,0.0,0.0,0.0,0.4,0.8,0.8,0.3579,0.45,0.18,2.0,0.7483,True,orthorhombic,mmm,63,25.0919,5.0792,0.5562
B16 La24 N40,3,0.0,0.0,0.0,0.0,0.0,0.3,0.2,0.0,0.3,0.3,0.0,1.94,0.8471,1.3,0.5745,6.0,2.7495,True,monoclinic,2/m,14,13.7747,6.1284,0.5162
Pt4 Y2,2,0.0,0.0,0.0,0.0,0.0,0.0,0.0,0.0,0.0,1.0,2.3333,1.06,0.4997,0.45,0.2121,1.0,0.4714,True,cubic,m-3m,227,19.0743,13.9021,1.0
C2 S4,2,0.0,0.0,0.0,0.0,0.0,0.0,0.0,0.0,0.0,0.0,-2.6667,0.03,0.0141,0.3,0.1414,1.0,0.4714,True,orthorhombic,mmm,64,35.8475,1.1757,0.4789
Co1 Cu2 Sn1,3,0.0,0.0,0.0,0.0,0.0,0.0,0.0,0.0,0.0,0.75,0.5,0.08,0.03,0.1,0.0433,1.0,0.433,True,cubic,m-3m,225,13.9172,9.0899,1.0
Ge3 Pu1,2,0.25,0.0,0.0,0.0,0.0,0.0,0.75,0.0,0.25,0.0,-2.0,0.73,0.3161,0.5,0.2165,5.0,2.1651,True,cubic,m-3m,221,19.3685,9.9006,1.0
Ce4 Ni4 Sn4,3,0.0,0.0,0.0,0.0,0.0,0.3333,0.0,0.0,0.3333,0.3333,0.3333,0.84,0.3847,0.5,0.216,4.0,1.6997,True,orthorhombic,mmm,62,21.3792,8.2207,0.6065
Mo1,1,0.0,0.0,0.0,0.0,0.0,0.0,0.0,0.0,0.0,1.0,4.0,0.0,0.0,0.0,0.0,0.0,0.0,True,cubic,m-3m,229,15.8916,10.0249,1.0
B1 Nd1 Pd3,3,0.0,0.0,0.0,0.0,0.0,0.2,0.2,0.0,0.2,0.6,2.4,1.06,0.4127,1.0,0.3172,6.0,1.8974,True,cubic,m-3m,221,16.8419,9.353,1.0
Eu4 S8 Si2,3,0.0,0.0,0.0,0.0,0.0,0.2857,0.1429,0.0,0.2857,0.0,-1.1429,2.58,1.1278,0.85,0.3765,5.0,2.2588,True,monoclinic,2/m,11,23.9024,4.568,0.8065
As4 Co2 U2,3,0.25,0.0,0.0,0.0,0.0,0.0,0.5,0.0,0.25,0.25,0.5,0.8,0.3269,0.6,0.2449,5.0,2.1651,True,tetragonal,4/mmm,129,17.7611,10.4433,0.4476
Dy4 Fe4 O12,3,0.0,0.0,0.0,0.6,0.0,0.2,0.0,0.0,0.2,0.2,-0.2,2.22,0.9578,1.15,0.4903,6.0,2.3324,True,orthorhombic,mmm,62,11.6469,7.5947,0.691
Cl2 Er2 H2,3,0.0,0.0,0.0,0.0,0.3333,0.3333,0.0,0.0,0.3333,0.0,0.3333,1.92,0.7838,1.5,0.6124,7.0,2.9439,True,trigonal,-3m,166,18.5732,6.0712,1.0
H16 Mo2 N4 O8,4,0.0,0.0,0.0,0.2667,0.0,0.0,0.0,0.0,0.0,0.0667,-1.2,1.28,0.5573,1.2,0.314,4.0,1.0111,True,monoclinic,2/m,12,10.3615,2.0942,0.9053
Al6 B3 F1 Fe3 Na1 O30 Si6,7,0.0,0.02,0.0,0.6,0.02,0.0,0.18,0.0,0.0,0.06,-1.02,3.05,0.8376,1.3,0.3196,2.0,0.5963,True,trigonal,3m,160,10.8478,3.2218,1.0
As8 Hg12 O32,3,0.0,0.0,0.0,0.6154,0.0,0.0,0.1538,0.0,0.0,0.2308,-1.4615,1.44,0.6678,0.9,0.3847,4.0,1.6712,True,monoclinic,2/m,14,15.8263,7.0993,0.5548
Al3 Si2 Y2,3,0.0,0.0,0.0,0.0,0.0,0.0,0.2857,0.0,0.0,0.2857,1.0,0.68,0.2582,0.7,0.2825,2.0,0.9035,True,monoclinic,2/m,12,19.2213,3.8867,0.6104
Be2 Li2 P2,3,0.0,0.3333,0.3333,0.0,0.0,0.0,0.0,0.0,0.0,0.0,0.0,1.21,0.494,0.45,0.2014,1.0,0.4714,True,tetragonal,4/mmm,129,13.0216,1.9947,0.6002
In1 Y1,2,0.0,0.0,0.0,0.0,0.0,0.0,0.0,0.0,0.0,0.5,3.0,0.56,0.28,0.25,0.125,0.0,0.0,True,cubic,m-3m,221,26.884,6.2917,1.0
Na3 P3 Sr3,3,0.0,0.3333,0.3333,0.0,0.0,0.0,0.0,0.0,0.0,0.0,0.0,1.26,0.5893,1.0,0.432,2.0,0.9428,True,hexagonal,-6m2,189,25.7071,3.0485,1.7133
As16 La8,2,0.0,0.0,0.0,0.0,0.0,0.3333,0.6667,0.0,0.3333,0.3333,-1.0,1.08,0.5091,0.8,0.3771,4.0,1.8856,True,monoclinic,m,9,25.5315,6.26,0.9375
B8 O80 Si16 Sm24,4,0.0,0.0,0.0,0.625,0.0,0.1875,0.1875,0.0,0.1875,0.0,-1.0,2.27,0.9419,1.25,0.4801,6.0,2.3049,True,orthorhombic,mmm,61,12.5111,5.6247,0.3063
Ag4 Ge2 O8 Zn2,4,0.0,0.0,0.0,0.5,0.0,0.0,0.125,0.0,0.0,0.375,-1.0,1.79,0.786,1.0,0.4387,3.0,1.299,True,monoclinic,m,7,14.4321,6.0087,0.7827
Te1 U1,2,0.5,0.0,0.0,0.5,0.0,0.0,0.5,0.0,0.5,0.0,2.0,0.72,0.36,0.35,0.175,4.0,2.0,True,cubic,m-3m,225,29.235,10.3838,1.0
Ge2 O8 U2,3,0.1667,0.0,0.0,0.6667,0.0,0.0,0.1667,0.0,0.1667,0.0,-1.0,2.06,0.8425,1.15,0.4481,7.0,2.5658,True,monoclinic,2/m,15,12.2979,8.4316,0.771
Cs2 O4 Sm2,3,0.0,0.25,0.0,0.5,0.0,0.25,0.0,0.0,0.25,0.0,0.0,2.65,1.2373,2.0,0.8547,6.0,2.5981,True,hexagonal,6/mmm,194,19.9882,6.5477,0.264
Al3 Dy3 Ni3,3,0.0,0.0,0.0,0.0,0.0,0.3333,0.0,0.0,0.3333,0.3333,2.6667,0.69,0.2825,0.5,0.216,5.0,2.1602,True,hexagonal,-6m2,189,18.1001,7.5893,1.7702
Br1 Na1,2,0.0,0.5,0.0,0.0,0.5,0.0,0.0,0.0,0.0,0.0,0.0,2.03,1.015,0.65,0.325,1.0,0.5,True,cubic,m-3m,225,27.3743,3.1208,1.0
K1 Mo2 O8 Sc1,4,0.0,0.0833,0.0,0.6667,0.0,0.0,0.0,0.0,0.0,0.25,-0.3333,2.62,0.9163,1.6,0.5373,3.0,1.2134,True,trigonal,-3m,164,18.5079,3.0201,0.7947
Er4 I12 O36,3,0.0,0.0,0.0,0.6923,0.2308,0.0769,0.0,0.0,0.0769,0.0,-1.3846,2.2,0.6251,1.15,0.4182,6.0,1.8748,True,monoclinic,2/m,14,15.7562,5.6097,0.4031
Ca1 Pt5,2,0.0,0.0,0.1667,0.0,0.0,0.0,0.0,0.0,0.0,0.8333,2.0,1.28,0.477,0.45,0.1677,2.0,0.7454,True,hexagonal,6/mmm,191,18.6415,15.0764,1.2184
Li1 O2 Rh1,3,0.0,0.25,0.0,0.5,0.0,0.0,0.0,0.0,0.0,0.25,0.0,2.46,1.015,0.85,0.4016,3.0,1.299,True,trigonal,-3m,166,9.828,5.9916,1.0
Cu6 O18 Sr6,3,0.0,0.0,0.2,0.6,0.0,0.0,0.0,0.0,0.0,0.2,-0.4,2.49,1.0318,1.4,0.5653,3.0,1.2649,True,monoclinic,m,6,11.8931,5.5616,0.3564