formula,numberOfSpecies,fracActinoid,fracAlkali,fracAlkaline,fracChalcogen,fracHalogen,fracLanthanoid,fracMetalloid,fracNobleGas,fracRareEarth,fracTransitionMetal,electronsPerAtom,electronegativityRange,electronegativityStd,radiiRange,radiiStd,rowRange,rowStd,ordered,crystalSystem,pointGroup,spaceGroupNumber,volumePerSite,density,c_a
Au2 Be1,2,0.0,0.0,0.3333,0.0,0.0,0.0,0.0,0.0,0.0,0.6667,2.6667,0.97,0.4573,0.3,0.1414,4.0,1.8856,True,tetragonal,4/mmm,139,14.7304,15.1411,0.5324
Ga1 N1,2,0.0,0.0,0.0,0.0,0.0,0.0,0.0,0.0,0.0,0.0,0.0,1.23,0.615,0.65,0.325,2.0,1.0,True,cubic,m-3m,225,9.735,7.141,1.0
O2 Te2 U2,3,0.3333,0.0,0.0,0.6667,0.0,0.0,0.3333,0.0,0.3333,0.0,0.6667,2.06,0.8536,1.15,0.4813,7.0,2.8674,True,tetragonal,4/mmm,129,20.3336,10.3886,0.513
O9 Sm6,2,0.0,0.0,0.0,0.6,0.0,0.4,0.0,0.0,0.4,0.0,0.0,2.27,1.1121,1.25,0.6124,6.0,2.9394,True,monoclinic,2/m,12,15.2844,7.5771,0.4071
Ag1 Au1 Zn2,3,0.0,0.0,0.0,0.0,0.0,0.0,0.0,0.0,0.0,1.0,2.0,0.89,0.3634,0.25,0.1083,2.0,0.8292,True,cubic,m-3m,225,16.2398,11.1365,1.0
Cl16 Ga4 K4,3,0.0,0.1667,0.0,0.0,0.6667,0.0,0.0,0.0,0.0,0.0,0.0,2.34,0.9155,1.2,0.4387,1.0,0.4714,True,monoclinic,2/m,14,31.5016,2.2019,0.6925
Na1 S2 Yb1,3,0.0,0.25,0.0,0.0,0.0,0.25,0.0,0.0,0.25,0.0,0.0,2.58,1.1074,0.8,0.3879,5.0,2.1651,True,trigonal,-3m,166,23.2705,4.6411,1.0
As12 O4 Sr12 Ta4,4,0.0,0.0,0.375,0.125,0.0,0.0,0.375,0.0,0.0,0.125,0.0,2.49,0.82,1.4,0.4872,4.0,1.111,True,orthorhombic,mmm,62,28.4482,4.9949,0.4934
Cs4 Fe2 H24 O28 S4,5,0.0,0.0645,0.0,0.4516,0.0,0.0,0.0,0.0,0.0,0.0323,-1.2903,2.65,0.7775,2.35,0.5783,5.0,1.27,True,monoclinic,2/m,14,12.2544,2.7183,0.4968
Cl2 Zr1,2,0.0,0.0,0.0,0.0,0.6667,0.0,0.0,0.0,0.0,0.3333,0.6667,1.83,0.8627,0.55,0.2593,2.0,0.9428,True,trigonal,3m,160,23.2733,3.856,1.0
Ni2 Zn2,2,0.0,0.0,0.0,0.0,0.0,0.0,0.0,0.0,0.0,1.0,2.0,0.26,0.13,0.0,0.0,0.0,0.0,True,tetragonal,4/mmm,123,12.0381,8.5594,0.8506
As1 Br3 Ca3,3,0.0,0.0,0.4286,0.0,0.4286,0.0,0.1429,0.0,0.0,0.0,0.0,1.96,0.91,0.65,0.3217,0.0,0.0,True,cubic,m-3m,221,30.3338,3.4008,1.0
Cu18 Ho2 Mg4,3,0.0,0.0,0.1667,0.0,0.0,0.0833,0.0,0.0,0.0833,0.75,2.0833,0.67,0.2677,0.4,0.117,5.0,1.2134,True,hexagonal,6/mmm,194,14.5501,7.47,0.3086
F8 H4 P4,3,0.0,0.0,0.0,0.0,0.5,0.0,0.0,0.0,0.0,0.0,-1.5,1.79,0.8925,0.75,0.2724,2.0,0.7071,True,orthorhombic,222,19,15.5501,1.8682,0.5761
Gd6 Pd4,2,0.0,0.0,0.0,0.0,0.0,0.6,0.0,0.0,0.6,0.4,2.6,1.0,0.4899,0.4,0.196,3.0,1.4697,True,tetragonal,4/mmm,127,24.7844,9.1734,0.5008
C2 Co1 Er1,3,0.0,0.0,0.0,0.0,0.0,0.25,0.0,0.0,0.25,0.25,-0.75,1.31,0.5443,1.05,0.4479,6.0,2.4495,True,orthorhombic,mm2,38,11.7991,8.8034,0.939
C2 O6 Zn2,3,0.0,0.0,0.0,0.6,0.0,0.0,0.0,0.0,0.0,0.2,-1.6,1.79,0.7155,0.75,0.2926,2.0,0.8,True,trigonal,-3m,167,9.8139,4.2442,1.0
Ca12 Fe2 N10,3,0.0,0.0,0.5,0.0,0.0,0.0,0.0,0.0,0.0,0.0833,-0.0833,2.04,0.9729,1.15,0.5493,2.0,0.986,True,hexagonal,6/mmm,193,17.2752,2.9345,0.5094
Ir4 Np2,2,0.3333,0.0,0.0,0.0,0.0,0.0,0.0,0.0,0.3333,0.6667,3.6667,0.84,0.396,0.4,0.1886,3.0,1.4142,True,cubic,m-3m,227,17.4412,19.7218,1.0
Li8 O56 Sr4 Ti24,4,0.0,0.087,0.0435,0.6087,0.0,0.0,0.0,0.0,0.0,0.2609,-0.0,2.49,1.0338,1.4,0.4439,3.0,1.0047,True,orthorhombic,mmm,64,11.8676,3.7274,0.873
Cu2 Ge2 Sr1,3,0.0,0.0,0.2,0.0,0.0,0.0,0.4,0.0,0.0,0.4,-0.4,1.06,0.405,0.75,0.2835,1.0,0.4,True,tetragonal,4/mmm,139,18.8848,6.3308,0.7166
Cs4 Cu2 Nb2 Se8,4,0.0,0.25,0.0,0.5,0.0,0.0,0.0,0.0,0.0,0.25,0.125,1.76,0.7283,1.45,0.601,2.0,0.857,True,orthorhombic,mmm,70,35.5381,4.311,0.4363
Co4 Ge2,2,0.0,0.0,0.0,0.0,0.0,0.0,0.3333,0.0,0.0,0.6667,0.0,0.13,0.0613,0.1,0.0471,0.0,0.0,True,hexagonal,6/mmm,194,11.6124,9.0807,0.7987
B6 K6 O12,3,0.0,0.25,0.0,0.5,0.0,0.0,0.25,0.0,0.0,0.0,0.0,2.62,1.0937,1.6,0.6646,2.0,0.866,True,trigonal,-3m,167,15.0336,2.2618,1.0
Ca10 H2 O26 P6,4,0.0,0.0,0.2273,0.5909,0.0,0.0,0.0,0.0,0.0,0.0,-1.1818,2.44,1.0127,1.55,0.5077,3.0,0.8907,True,hexagonal,6,173,12.4082,3.0556,1.3796
Ni20 P16,2,0.0,0.0,0.0,0.0,0.0,0.0,0.0,0.0,0.0,0.5556,-0.2222,0.28,0.1391,0.35,0.1739,1.0,0.4969,True,hexagonal,6mm,186,12.1346,6.3459,0.6175
Rh6 Th14,2,0.7,0.0,0.0,0.0,0.0,0.0,0.0,0.0,0.7,0.3,3.7,0.98,0.4491,0.45,0.2062,4.0,1.833,True,hexagonal,6mm,186,27.4901,11.6762,1.5931
Sn1 Te1,2,0.0,0.0,0.0,0.5,0.0,0.0,0.5,0.0,0.0,0.0,-3.0,0.14,0.07,0.05,0.025,0.0,0.0,True,cubic,m-3m,225,33.0334,6.1908,1.0
Au4 Mn1,2,0.0,0.0,0.0,0.0,0.0,0.0,0.0,0.0,0.0,1.0,2.8,0.99,0.396,0.05,0.02,2.0,0.8,True,tetragonal,4/m,87,17.4947,15.9992,0.7895
P6 Sr2,2,0.0,0.0,0.25,0.0,0.0,0.0,0.0,0.0,0.0,0.0,-1.75,1.24,0.5369,1.0,0.433,2.0,0.866,True,monoclinic,2/m,12,22.3846,3.3482,0.9729
O14 Sn4 Sr6,3,0.0,0.0,0.25,0.5833,0.0,0.0,0.0,0.0,0.0,0.0,-1.3333,2.49,1.0769,1.4,0.6072,3.0,1.479,True,orthorhombic,mmm,63,14.736,5.7496,0.5389
Sb4 U2,2,0.3333,0.0,0.0,0.0,0.0,0.0,0.6667,0.0,0.3333,0.0,0.0,0.67,0.3158,0.3,0.1414,4.0,1.8856,True,tetragonal,4/mmm,129,26.9565,9.8879,0.4956
K18 Nd6 O42 Si12,4,0.0,0.2308,0.0,0.5385,0.0,0.0769,0.1538,0.0,0.0769,0.0,-1.2308,2.62,1.1483,1.6,0.6748,6.0,1.639,True,hexagonal,6/mmm,193,16.9038,3.2471,0.6895
Cl4 O12 Pb2,3,0.0,0.0,0.0,0.6667,0.2222,0.0,0.0,0.0,0.0,0.0,-1.3333,1.11,0.3463,1.2,0.3823,4.0,1.2472,True,orthorhombic,mm2,43,16.2928,4.2364,0.9515
O3 Pr2,2,0.0,0.0,0.0,0.6,0.0,0.4,0.0,0.0,0.4,0.0,0.0,2.31,1.1317,1.25,0.6124,6.0,2.9394,True,trigonal,-3m,164,16.1631,6.7768,0.6353
Co2 H40 N4 O28 Se4,5,0.0,0.0,0.0,0.4103,0.0,0.0,0.0,0.0,0.0,0.0256,-1.4359,1.56,0.5908,1.1,0.2759,3.0,0.8317,True,monoclinic,2/m,14,9.5748,2.1746,0.509
B2 O6 V2,3,0.0,0.0,0.0,0.6,0.0,0.0,0.2,0.0,0.0,0.2,0.4,1.81,0.7969,0.75,0.2915,2.0,0.8,True,trigonal,-3m,167,9.4041,3.8759,1.0
Br8 O2 Rb12,3,0.0,0.5455,0.0,0.0909,0.3636,0.0,0.0,0.0,0.0,0.0,0.0,2.62,1.1209,1.75,0.6689,3.0,0.8814,True,trigonal,-3m,167,38.9942,3.2845,1.0
O28 P8 V4,3,0.0,0.0,0.0,0.7,0.0,0.0,0.0,0.0,0.0,0.1,-1.5,1.81,0.6741,0.75,0.2534,2.0,0.6633,True,triclinic,-1,2,12.166,3.0695,0.4792
Ag2 La1 Si2,3,0.0,0.0,0.0,0.0,0.0,0.2,0.4,0.0,0.2,0.6,-0.6,0.83,0.3263,0.85,0.328,5.0,1.833,True,tetragonal,4/mmm,139,20.0134,6.8171,0.7003
C1 Mo2 Pr1 Si2,4,0.0,0.0,0.0,0.0,0.0,0.1667,0.3333,0.0,0.1667,0.3333,-0.1667,1.42,0.4328,1.15,0.3614,6.0,1.972,True,tetragonal,4/mmm,123,16.2928,6.811,0.778
Ge4 Te12 Tl12,3,0.0,0.0,0.0,0.4286,0.0,0.0,0.5714,0.0,0.0,0.0,-1.0,0.48,0.2283,0.65,0.2705,2.0,0.6999,True,triclinic,-1,2,36.7773,6.8926,0.9173
Ag2 Ga2 Se4,3,0.0,0.0,0.0,0.5,0.0,0.0,0.0,0.0,0.0,0.25,0.0,0.74,0.3426,0.45,0.1837,1.0,0.433,True,tetragonal,-42m,122,25.8672,5.3845,0.856
C2 Sc4 Tl2,3,0.0,0.0,0.0,0.0,0.0,0.0,0.0,0.0,0.0,0.5,0.75,1.19,0.4894,1.2,0.45,4.0,1.4142,True,hexagonal,6/mmm,194,18.9583,6.7073,0.22
B2 Pr1 Rh3,3,0.0,0.0,0.0,0.0,0.0,0.1667,0.3333,0.0,0.1667,0.5,3.0,1.15,0.4072,1.0,0.3436,6.0,2.0616,True,hexagonal,6/mmm,191,13.8092,9.4444,1.7763
Na4 Rb2 Si34,3,0.0,0.15,0.0,0.0,0.0,0.0,0.85,0.0,0.0,0.0,-3.25,1.08,0.36,1.25,0.331,2.0,0.4359,True,cubic,m-3m,227,20.3428,2.4852,1.0
Ca2 Na2 O10 Ta3,4,0.0,0.1176,0.1176,0.5882,0.0,0.0,0.0,0.0,0.0,0.1765,0.0588,2.51,1.1183,1.2,0.5286,4.0,1.5135,True,tetragonal,4/mmm,139,13.4565,6.0174,0.2727
C1 Dy3 Ga1,3,0.0,0.0,0.0,0.0,0.0,0.6,0.0,0.0,0.6,0.0,1.6,1.33,0.5253,1.05,0.4135,6.0,2.5298,True,cubic,m-3m,221,29.7882,6.3464,1.0
Au8 Ba36 O48,3,0.0,0.0,0.3913,0.5217,0.0,0.0,0.0,0.0,0.0,0.087,0.0,2.55,1.207,1.55,0.7333,4.0,1.9981,True,orthorhombic,mmm,62,19.8304,6.6329,0.4138
I4 Li4 O16,3,0.0,0.1667,0.0,0.6667,0.1667,0.0,0.0,0.0,0.0,0.0,-1.3333,2.46,0.9047,0.85,0.3892,3.0,1.118,True,monoclinic,2/m,14,15.4101,3.5531,0.6194
Eu2 Pd6 S8,3,0.0,0.0,0.0,0.0,0.0,0.125,0.0,0.0,0.125,0.375,0.0,2.58,0.8185,0.85,0.2909,5.0,1.6536,True,cubic,m-3m,223,19.1273,6.5055,1.0
La4 O7 Pd1,3,0.0,0.0,0.0,0.5833,0.0,0.3333,0.0,0.0,0.3333,0.4167,-0.0,2.34,1.0831,1.35,0.6276,6.0,2.7726,True,monoclinic,2/m,12,15.7429,6.8037,0.569
Ni6 P6 Sr3,3,0.0,0.0,0.2,0.0,0.0,0.0,0.0,0.0,0.0,0.4,0.0,1.24,0.4575,1.0,0.3652,2.0,0.7483,True,orthorhombic,mmm,71,16.4636,5.3851,0.4832
Cu4 Mg1 Sn1,3,0.0,0.0,0.1667,0.0,0.0,0.0,0.0,0.0,0.0,0.6667,1.0,0.65,0.2254,0.15,0.0607,2.0,0.5774,True,cubic,-43m,216,14.6776,7.4895,1.0
Co2 O8 U2,3,0.1667,0.0,0.0,0.6667,0.0,0.0,0.0,0.0,0.1667,0.1667,0.0,2.06,0.8654,1.15,0.4625,7.0,2.5658,True,orthorhombic,mmm,74,12.6683,7.8857,1.0
Cu2 Ho6 S14 Si2,4,0.0,0.0,0.0,0.0,0.0,0.25,0.0833,0.0,0.25,0.0833,-0.5833,1.35,0.574,0.75,0.3179,5.0,2.1344,True,hexagonal,6,173,19.9667,5.6197,1.7268
La2 Pt2 Si4,3,0.0,0.0,0.0,0.0,0.0,0.25,0.5,0.0,0.25,0.5,-0.75,1.18,0.4302,0.85,0.3473,5.0,2.1213,True,orthorhombic,mmm,63,19.8444,8.1619,0.4904
C15 V18,2,0.0,0.0,0.0,0.0,0.0,0.0,0.0,0.0,0.0,0.5455,0.9091,0.92,0.4581,0.65,0.3237,2.0,0.9959,True,trigonal,32,151,9.8269,5.6178,0.3553
Ca2 Cr2 O8,3,0.0,0.0,0.1667,0.6667,0.0,0.0,0.0,0.0,0.0,0.1667,-0.5,2.44,1.0127,1.2,0.4853,2.0,0.9428,True,tetragonal,4/mmm,141,14.2414,3.033,1.0
C6 N8,2,0.0,0.0,0.0,0.0,0.0,0.0,0.0,0.0,0.0,0.0,-3.4286,0.49,0.2425,0.05,0.0247,0.0,0.0,True,cubic,-43m,220,5.7821,3.7769,1.0
N4 S4,2,0.0,0.0,0.0,0.0,0.0,0.0,0.0,0.0,0.0,0.0,-2.5,0.46,0.23,0.35,0.175,1.0,0.5,True,monoclinic,2/m,14,21.0388,1.8182,0.5973
Hg2 La1,2,0.0,0.0,0.0,0.0,0.0,0.3333,0.0,0.0,0.3333,1.0,1.6667,0.9,0.4243,0.45,0.2121,2.0,0.9428,True,hexagonal,6/mmm,191,27.0039,11.0704,1.4391
Al2 F12 Li2 Sm2,4,0.0,0.1111,0.0,0.0,0.6667,0.1111,0.0,0.0,0.1111,0.0,0.1111,3.0,1.2944,1.35,0.5004,6.0,1.8725,True,hexagonal,622,182,12.955,4.248,0.4448
O1 P2 Sr4,3,0.0,0.0,0.5714,0.1429,0.0,0.0,0.0,0.0,0.0,0.0,0.0,2.49,0.9061,1.4,0.5743,3.0,1.1952,True,tetragonal,4/mmm,139,26.7971,3.7926,0.5544
C28 O28 Os8,3,0.0,0.0,0.0,0.4375,0.0,0.0,0.0,0.0,0.0,0.125,-2.125,1.24,0.4923,0.7,0.22,4.0,1.3229,True,monoclinic,2/m,15,17.2906,3.4605,0.8009
Ba2 Mn1 O6 U1,4,0.1,0.0,0.2,0.6,0.0,0.0,0.0,0.0,0.1,0.1,0.0,2.55,1.1239,1.55,0.6494,7.0,2.3685,True,cubic,m-3m,225,15.7654,6.9897,1.0
O8 Ti4,2,0.0,0.0,0.0,0.6667,0.0,0.0,0.0,0.0,0.0,0.3333,0.0,1.9,0.8957,0.8,0.3771,2.0,0.9428,True,orthorhombic,mmm,60,10.5247,4.2003,0.8216
Au10 F42 Y4,3,0.0,0.0,0.0,0.0,0.75,0.0,0.0,0.0,0.0,0.25,-0.0,2.76,0.8414,1.3,0.4358,4.0,1.6241,True,monoclinic,2/m,13,16.2245,5.7081,0.6689
Co2 Pd4 Te4,3,0.0,0.0,0.0,0.4,0.0,0.0,0.4,0.0,0.0,0.6,0.4,0.32,0.1169,0.05,0.02,1.0,0.4,True,orthorhombic,mmm,72,18.64,9.389,0.7558
As2 Ca1 Ni2,3,0.0,0.0,0.2,0.0,0.0,0.0,0.4,0.0,0.0,0.4,0.0,1.18,0.4351,0.65,0.2375,0.0,0.0,True,tetragonal,4/mmm,139,16.7093,6.1079,0.707
Fe4 Li2 O20 P6,4,0.0,0.0625,0.0,0.625,0.0,0.0,0.0,0.0,0.0,0.125,-1.5,2.46,0.8049,0.85,0.3211,2.0,0.7043,True,monoclinic,2/m,11,11.5419,3.3409,0.5134
Ca16 O40 Ti12,3,0.0,0.0,0.2353,0.5882,0.0,0.0,0.0,0.0,0.0,0.1765,0.0,2.44,1.1004,1.2,0.5219,2.0,0.9843,True,orthorhombic,mmm,61,12.0296,3.7669,0.2003
Al16 F48,2,0.0,0.0,0.0,0.0,0.75,0.0,0.0,0.0,0.0,0.0,0.0,2.37,1.0262,0.75,0.3248,1.0,0.433,True,tetragonal,4/mmm,129,12.1231,2.8756,0.7046
Ag2 Bi2 Se4,3,0.0,0.0,0.0,0.5,0.0,0.0,0.0,0.0,0.0,0.25,0.0,0.62,0.2893,0.45,0.225,2.0,0.8292,True,monoclinic,2/m,12,25.525,7.7216,1.1445
Br16 Co4 Rb8,3,0.0,0.2857,0.0,0.0,0.5714,0.0,0.0,0.0,0.0,0.1429,0.0,2.14,0.9427,1.2,0.5284,1.0,0.4518,True,orthorhombic,mmm,62,37.2284,3.5013,0.5679
Co4 O48 P16,3,0.0,0.0,0.0,0.7059,0.0,0.0,0.0,0.0,0.0,0.0588,-2.0,1.56,0.6016,0.75,0.2272,2.0,0.5882,True,orthorhombic,mmm,60,14.7365,2.4844,1.3923
Au1 Be5,2,0.0,0.0,0.8333,0.0,0.0,0.0,0.0,0.0,0.0,0.1667,2.1667,0.97,0.3615,0.3,0.1118,4.0,1.4907,True,cubic,-43m,216,9.5485,7.015,1.0
Eu1 P2 Rh2,3,0.0,0.0,0.0,0.0,0.0,0.2,0.0,0.0,0.2,0.4,0.4,2.28,0.8949,0.85,0.3121,5.0,1.833,True,tetragonal,4/mmm,139,16.3436,8.5289,0.704
O16 Si8,2,0.0,0.0,0.0,0.6667,0.0,0.0,0.3333,0.0,0.0,0.0,-2.6667,1.54,0.726,0.5,0.2357,1.0,0.4714,True,monoclinic,2/m,15,11.8933,2.7963,1.0001
Na4 O14 W4,3,0.0,0.1818,0.0,0.6364,0.0,0.0,0.0,0.0,0.0,0.1818,-0.3636,2.51,0.9651,1.2,0.4883,4.0,1.5048,True,orthorhombic,mm2,36,13.3116,5.9611,0.2809
Cl6 Zr2,2,0.0,0.0,0.0,0.0,0.75,0.0,0.0,0.0,0.0,0.25,0.25,1.83,0.7924,0.55,0.2382,2.0,0.866,True,hexagonal,6/mmm,193,32.0126,2.5622,1.1419
Cl12 Cr2 Na6,3,0.0,0.3,0.0,0.0,0.6,0.0,0.0,0.0,0.0,0.1,0.0,2.23,1.0228,0.8,0.36,1.0,0.3,True,trigonal,-3m,163,25.0858,2.2088,0.5683
Ca2 Cd4,2,0.0,0.0,0.3333,0.0,0.0,0.0,0.0,0.0,0.0,0.6667,2.0,0.69,0.3253,0.25,0.1179,1.0,0.4714,True,orthorhombic,mmm,74,26.7315,5.4851,0.809
H16 N2 O16 P4 Zn1,5,0.0,0.0,0.0,0.4103,0.0,0.0,0.0,0.0,0.0,0.0256,-1.641,1.79,0.6219,1.1,0.2733,3.0,0.7414,True,triclinic,-1,2,9.9387,2.0968,0.9119
Al3 Ni5,2,0.0,0.0,0.0,0.0,0.0,0.0,0.0,0.0,0.0,0.625,2.375,0.3,0.1452,0.1,0.0484,1.0,0.4841,True,orthorhombic,mmm,65,11.6527,6.6693,0.752
I18 Rb6 Ti6,3,0.0,0.2,0.0,0.0,0.6,0.0,0.0,0.0,0.0,0.2,0.4,1.84,0.76,0.95,0.38,1.0,0.4,True,hexagonal,6mm,185,40.4393,4.2216,2.0168
F6 Li2 Nb1,3,0.0,0.2222,0.0,0.0,0.6667,0.0,0.0,0.0,0.0,0.1111,0.1111,3.0,1.3276,0.95,0.4478,3.0,0.9428,True,trigonal,-3m,162,11.4633,3.5535,1.0679
Cu6 S12 Sn3 Sr3,4,0.0,0.0,0.125,0.0,0.0,0.0,0.0,0.0,0.0,0.25,-0.75,1.63,0.5405,1.0,0.3297,2.0,0.8292,True,trigonal,3,144,22.6618,4.2287,0.407
C1 Ho3 Sn1,3,0.0,0.0,0.0,0.0,0.0,0.6,0.0,0.0,0.6,0.0,0.2,1.32,0.5357,1.05,0.4069,6.0,2.4,True,cubic,m-3m,221,34.7249,5.9824,1.0
B4 Cs4 F16,3,0.0,0.1667,0.0,0.0,0.6667,0.0,0.1667,0.0,0.0,0.0,0.0,3.19,1.2618,2.1,0.7673,4.0,1.4907,True,orthorhombic,mmm,62,18.9256,3.2129,0.6071
Be4 N4 Sr2,3,0.0,0.0,0.6,0.0,0.0,0.0,0.0,0.0,0.0,0.0,0.0,2.09,0.852,1.35,0.4936,3.0,1.2,True,tetragonal,4/mmm,140,12.0547,3.6823,1.0
La1 Se1,2,0.0,0.0,0.0,0.5,0.0,0.5,0.0,0.0,0.5,0.5,0.5,1.45,0.725,0.8,0.4,4.0,2.0,True,cubic,m-3m,225,28.4471,6.3587,1.0
Mo2 Rh6,2,0.0,0.0,0.0,0.0,0.0,0.0,0.0,0.0,0.0,1.0,3.25,0.12,0.052,0.1,0.0433,0.0,0.0,True,hexagonal,6/mmm,194,14.4751,11.6052,1.2587
Au4 Na4 Sn4,3,0.0,0.3333,0.0,0.0,0.0,0.0,0.0,0.0,0.0,0.3333,0.0,1.61,0.6658,0.45,0.1929,3.0,1.2472,True,orthorhombic,mmm,62,24.3108,7.7108,0.5608
Cl8 S2 W2,3,0.0,0.0,0.0,0.0,0.6667,0.0,0.0,0.0,0.0,0.1667,-0.3333,0.8,0.3314,0.35,0.1304,3.0,1.118,True,triclinic,-1,2,35.3134,2.8035,0.7991
Mn1 O6 Pt3,3,0.0,0.0,0.0,0.6,0.0,0.0,0.0,0.0,0.0,0.4,-0.4,1.89,0.6874,0.8,0.3738,4.0,1.8,True,orthorhombic,mmm,65,11.8843,10.2864,0.5207
Ba6 O22 Te8,3,0.0,0.0,0.1667,0.8333,0.0,0.0,0.2222,0.0,0.0,0.0,-1.3333,2.55,0.98,1.55,0.5937,4.0,1.6997,True,triclinic,-1,2,19.6628,5.1532,0.7951
Mn2 Na2 P2,3,0.0,0.3333,0.0,0.0,0.0,0.0,0.0,0.0,0.0,0.3333,0.0,1.26,0.5144,0.8,0.3266,1.0,0.4714,True,tetragonal,4/mmm,129,16.4801,3.6576,0.5381
Ge4 Li14,2,0.0,0.7778,0.0,0.0,0.0,0.0,0.2222,0.0,0.0,0.0,-0.1111,1.03,0.4282,0.2,0.0831,2.0,0.8315,True,orthorhombic,mmm,65,15.1709,2.3578,0.556
Ba2 Cu2 O10 Pr4,4,0.0,0.0,0.1111,0.5556,0.0,0.2222,0.0,0.0,0.2222,0.1111,-0.0,2.55,1.1114,1.55,0.6263,6.0,2.4944,True,tetragonal,4/mmm,127,15.2535,6.8062,0.8655
Lu1 Pb3,2,0.0,0.0,0.0,0.0,0.0,0.25,0.0,0.0,0.25,0.0,2.25,1.06,0.459,0.05,0.0217,0.0,0.0,True,cubic,m-3m,221,28.9033,11.441,1.0
Sn3 Y1,2,0.0,0.0,0.0,0.0,0.0,0.0,0.0,0.0,0.0,0.25,-2.25,0.74,0.3204,0.35,0.1516,0.0,0.0,True,cubic,m-3m,221,26.4142,6.9943,1.0
Nb6 Ni16 Si7,3,0.0,0.0,0.0,0.0,0.0,0.0,0.2414,0.0,0.0,0.7586,1.1724,0.31,0.1244,0.35,0.1248,2.0,0.6686,True,cubic,m-3m,225,12.3072,7.8774,1.0
Al4 Cu4 F24 K4,4,0.0,0.1111,0.0,0.0,0.6667,0.0,0.0,0.0,0.0,0.1111,-0.0,3.16,1.2245,1.7,0.574,2.0,0.8315,True,orthorhombic,mmm,62,13.3257,3.373,0.6769
C120 S32,2,0.0,0.0,0.0,0.0,0.0,0.0,0.0,0.0,0.0,0.0,-3.5789,0.03,0.0122,0.3,0.1223,1.0,0.4077,True,monoclinic,2/m,15,17.0762,1.5785,0.7098
Ba2 O16 V6,3,0.0,0.0,0.0833,0.6667,0.0,0.0,0.0,0.0,0.0,0.25,0.0833,2.55,0.9585,1.55,0.4905,4.0,1.2802,True,monoclinic,2,4,14.2988,4.0467,0.6726
Cl2 O1 Os1,3,0.0,0.0,0.0,0.25,0.5,0.0,0.0,0.0,0.0,0.25,0.0,1.24,0.4702,0.7,0.2487,4.0,1.5,True,monoclinic,2/m,12,21.4128,5.3729,0.5299
Sn2 V6,2,0.0,0.0,0.0,0.0,0.0,0.0,0.0,0.0,0.0,0.75,2.75,0.33,0.1429,0.1,0.0433,1.0,0.433,True,hexagonal,6/mmm,194,15.6436,7.2057,1.2486
Cl9 Cs3 Mn3,3,0.0,0.2,0.0,0.0,0.6,0.0,0.0,0.0,0.0,0.2,0.0,2.37,1.0041,1.6,0.6197,3.0,1.1662,True,trigonal,-3m,166,29.2704,3.3381,1.0
Ca2 O6 Si1 Ti1,4,0.0,0.0,0.2,0.6,0.0,0.0,0.1,0.0,0.0,0.1,-0.8,2.44,1.0472,1.2,0.49,2.0,0.9,True,cubic,m-3m,225,10.4955,3.9887,1.0
Sb6 Sm8,2,0.0,0.0,0.0,0.0,0.0,0.5714,0.4286,0.0,0.5714,0.0,0.4286,0.88,0.4355,0.4,0.1979,3.0,1.4846,True,cubic,-43m,220,29.6716,7.7288,1.0
Hg2 Ti2,2,0.0,0.0,0.0,0.0,0.0,0.0,0.0,0.0,0.0,1.0,2.5,0.46,0.23,0.1,0.05,2.0,1.0,True,tetragonal,4/mmm,123,19.0194,10.8461,0.9526
F20 K4 Te4,3,0.0,0.1429,0.0,0.1429,0.7143,0.0,0.1429,0.0,0.0,0.0,-0.8571,3.16,1.1887,1.7,0.625,3.0,1.1606,True,orthorhombic,mmm,57,19.052,3.2583,0.4275
Ba8 Cl28 Gd4,3,0.0,0.0,0.2,0.0,0.7,0.1,0.0,0.0,0.1,0.0,0.0,2.27,0.9961,1.15,0.4821,5.0,1.7578,True,monoclinic,2/m,14,29.3342,3.8497,0.4415
Hg6 Y2,2,0.0,0.0,0.0,0.0,0.0,0.0,0.0,0.0,0.0,1.0,1.5,0.78,0.3377,0.3,0.1299,1.0,0.433,True,hexagonal,6/mmm,194,24.256,11.8207,1.3304
Fe9 Li6 O32 P8,4,0.0,0.1091,0.0,0.5818,0.0,0.0,0.0,0.0,0.0,0.1636,-1.1636,2.46,0.8957,0.85,0.3569,2.0,0.7593,True,triclinic,-1,2,11.6148,3.3897,1.0224
As2 Ba1 Pd2,3,0.0,0.0,0.2,0.0,0.0,0.0,0.4,0.0,0.0,0.4,-0.0,1.31,0.5201,1.0,0.3674,2.0,0.7483,True,tetragonal,4/mmm,123,22.6489,7.3318,0.763
K4 Na4 S4,3,0.0,0.6667,0.0,0.0,0.0,0.0,0.0,0.0,0.0,0.0,0.0,1.76,0.805,1.2,0.4989,1.0,0.4714,True,orthorhombic,mmm,62,25.5752,2.0377,0.5544
Pd2 V1,2,0.0,0.0,0.0,0.0,0.0,0.0,0.0,0.0,0.0,1.0,3.0,0.57,0.2687,0.05,0.0236,1.0,0.4714,True,orthorhombic,mmm,71,14.5474,10.0366,0.5739
Ga2 Nb2 O8,3,0.0,0.0,0.0,0.6667,0.0,0.0,0.0,0.0,0.0,0.1667,0.0,1.84,0.8201,0.85,0.3679,3.0,1.2134,True,monoclinic,2,5,13.0149,4.8191,0.5713
H6 K2 Li4 O6,4,0.0,0.3333,0.0,0.3333,0.0,0.0,0.0,0.0,0.0,0.0,-0.6667,2.62,1.027,1.95,0.6506,3.0,0.8749,True,monoclinic,2/m,11,12.7676,1.5029,0.7504
Ce1 Mn1 Ni4,3,0.0,0.0,0.0,0.0,0.0,0.1667,0.0,0.0,0.1667,0.8333,2.1667,0.79,0.2981,0.5,0.1835,4.0,1.4907,True,cubic,-43m,216,13.981,8.5085,1.0
Cd2 Dy4 S8,3,0.0,0.0,0.0,0.0,0.0,0.2857,0.0,0.0,0.2857,0.1429,0.0,1.36,0.6129,0.75,0.3437,5.0,2.1853,True,cubic,m-3m,227,25.7838,5.2044,1.0
Sb6 Te6,2,0.0,0.0,0.0,0.5,0.0,0.0,1.0,0.0,0.0,0.0,-2.5,0.05,0.025,0.05,0.025,0.0,0.0,True,trigonal,-3m,164,33.4707,6.1856,0.1777
Dy1 Mn2 Si2,3,0.0,0.0,0.0,0.0,0.0,0.2,0.4,0.0,0.2,0.4,-0.2,0.68,0.2555,0.65,0.2408,5.0,1.8547,True,tetragonal,4/mmm,139,15.6496,6.9723,0.6663
Cd8 Cl8 P4,3,0.0,0.0,0.0,0.0,0.4,0.0,0.0,0.0,0.0,0.4,-0.2,1.47,0.6641,0.55,0.2694,2.0,0.9798,True,monoclinic,2/m,14,25.3348,4.2827,0.8614
Nb1 O8 Rb3,3,0.0,0.25,0.0,0.6667,0.0,0.0,0.0,0.0,0.0,0.0833,-0.6667,2.62,1.1597,1.75,0.7533,3.0,1.4142,True,tetragonal,-42m,121,17.8632,3.6975,1.0
Ge8 O40 Rb8 Sb8,4,0.0,0.125,0.0,0.625,0.0,0.0,0.25,0.0,0.0,0.0,-2.0,2.62,0.9449,1.75,0.6007,3.0,1.3229,True,orthorhombic,mm2,33,15.8628,4.7089,0.5003
Co2 Dy1 Si2,3,0.0,0.0,0.0,0.0,0.0,0.2,0.4,0.0,0.2,0.4,-0.2,0.68,0.2681,0.65,0.2379,5.0,1.8547,True,tetragonal,4/mmm,139,14.6802,7.6134,0.6929
Cl12 N4 Nd8,3,0.0,0.0,0.0,0.0,0.5,0.3333,0.0,0.0,0.3333,0.0,0.0,2.02,0.9391,1.2,0.4589,6.0,2.5,True,orthorhombic,mmm,60,24.5659,4.6061,0.4643
La4 Ni2 O12 Ru2,4,0.0,0.0,0.0,0.6,0.0,0.2,0.0,0.0,0.2,0.4,-0.1,2.34,0.9633,1.35,0.5455,6.0,2.3685,True,monoclinic,2/m,14,12.653,7.0024,0.7009
Ca10 Ga12 O28,3,0.0,0.0,0.2,0.56,0.0,0.0,0.0,0.0,0.0,0.0,-0.0,2.44,1.0273,1.2,0.489,2.0,0.9928,True,orthorhombic,mm2,36,14.0561,3.9822,0.7686
Te10 Zr2,2,0.0,0.0,0.0,0.8333,0.0,0.0,0.8333,0.0,0.0,0.1667,-1.0,0.77,0.287,0.15,0.0559,0.0,0.0,True,orthorhombic,mmm,63,37.0652,5.4449,0.2928
Al6 Cl2 Li8 O24 Si6,5,0.0,0.1739,0.0,0.5217,0.0435,0.0,0.1304,0.0,0.0,0.0,-1.0435,2.46,1.0141,0.85,0.3478,1.0,0.4601,True,cubic,-43m,218,13.5183,2.2453,1.0
P16 S28,2,0.0,0.0,0.0,0.0,0.0,0.0,0.0,0.0,0.0,0.0,-2.3636,0.39,0.1876,0.0,0.0,0.0,0.0,True,monoclinic,2/m,14,30.9916,1.6968,0.4006
Al6 Ba20 Ge14,3,0.0,0.0,0.5,0.0,0.0,0.0,0.35,0.0,0.0,0.0,0.05,1.12,0.5165,0.9,0.45,3.0,1.1948,True,hexagonal,6/mmm,193,35.1574,4.6351,0.5936
Cu4 La4 Mg2,3,0.0,0.0,0.2,0.0,0.0,0.4,0.0,0.0,0.4,0.8,2.4,0.8,0.3658,0.6,0.275,5.0,2.1541,True,tetragonal,4/mmm,127,24.6441,5.7841,0.4929
Cu2 P2 Zr1,3,0.0,0.0,0.0,0.0,0.0,0.0,0.0,0.0,0.0,0.6,0.4,0.86,0.314,0.55,0.2168,2.0,0.7483,True,trigonal,-3m,164,15.5945,5.9686,0.6197
Al2 B28 Li2,3,0.0,0.0625,0.0,0.0,0.0,0.0,0.875,0.0,0.0,0.0,2.875,1.06,0.2704,0.6,0.1691,1.0,0.2421,True,orthorhombic,mmm,74,7.6962,2.4985,0.8129
Sb1 Sn1,2,0.0,0.0,0.0,0.0,0.0,0.0,0.5,0.0,0.0,0.0,-3.5,0.09,0.045,0.0,0.0,0.0,0.0,True,cubic,m-3m,225,29.5665,6.7527,1.0