formula,numberOfSpecies,fracActinoid,fracAlkali,fracAlkaline,fracChalcogen,fracHalogen,fracLanthanoid,fracMetalloid,fracNobleGas,fracRareEarth,fracTransitionMetal,electronsPerAtom,electronegativityRange,electronegativityStd,radiiRange,radiiStd,rowRange,rowStd,ordered,crystalSystem,pointGroup,spaceGroupNumber,volumePerSite,density,c_a
C1 Fe3 Sn1,3,0.0,0.0,0.0,0.0,0.0,0.0,0.0,0.0,0.0,0.6,-0.4,0.72,0.2796,0.75,0.2857,3.0,0.9798,True,cubic,m-3m,221,11.7834,8.4062,1.0
Cl16 Tm8,2,0.0,0.0,0.0,0.0,0.6667,0.3333,0.0,0.0,0.3333,0.0,0.3333,1.91,0.9004,0.75,0.3536,5.0,2.357,True,orthorhombic,mmm,61,22.7736,5.8293,0.5087
Au20 Ca20 Sn20,3,0.0,0.0,0.3333,0.0,0.0,0.0,0.0,0.0,0.0,0.3333,0.3333,1.54,0.6351,0.45,0.1929,2.0,0.8165,True,orthorhombic,mmm,62,24.614,8.0001,0.1282
Ga6 Hf4,2,0.0,0.0,0.0,0.0,0.0,0.0,0.0,0.0,0.0,0.4,3.4,0.51,0.2498,0.25,0.1225,2.0,0.9798,True,orthorhombic,mm2,43,17.8217,10.5502,0.7412
Ba4 Cu4 O40 Si16,4,0.0,0.0,0.0625,0.625,0.0,0.0,0.25,0.0,0.0,0.0625,-2.0,2.55,0.8586,1.55,0.419,4.0,1.0533,True,tetragonal,4/mmm,130,14.6341,3.356,0.4544
Ho6 Rh30 Si18,3,0.0,0.0,0.0,0.0,0.0,0.1111,0.3333,0.0,0.1111,0.5556,0.6667,1.05,0.3338,0.65,0.1926,5.0,1.4907,True,hexagonal,6/m,176,15.223,9.2563,4.0323
Sb6 Yb8,2,0.0,0.0,0.0,0.0,0.0,0.5714,0.4286,0.0,0.5714,0.0,0.4286,2.05,1.0145,0.3,0.1485,3.0,1.4846,True,cubic,-43m,220,30.1313,8.3251,1.0
Ge2 S2,2,0.0,0.0,0.0,0.0,0.0,0.0,0.5,0.0,0.0,0.0,-3.0,0.57,0.285,0.25,0.125,1.0,0.5,True,orthorhombic,mmm,63,21.1516,4.11,0.6566
As4 B2 K6,3,0.0,0.5,0.0,0.0,0.0,0.0,0.5,0.0,0.0,0.0,0.0,1.36,0.6583,1.35,0.5836,2.0,0.7454,True,monoclinic,2/m,15,32.114,2.3953,0.734
As4 Ru4,2,0.0,0.0,0.0,0.0,0.0,0.0,0.5,0.0,0.0,0.5,0.0,0.02,0.01,0.15,0.075,1.0,0.5,True,orthorhombic,mmm,62,15.5296,9.4092,0.5217
H72 N36 Ni18,3,0.0,0.0,0.0,0.0,0.0,0.0,0.0,0.0,0.0,0.1429,-1.1429,1.13,0.4174,1.1,0.3807,3.0,1.0302,True,cubic,m-3,200,10.0825,2.1349,1.0
Ag1 I1,2,0.0,0.0,0.0,0.0,0.5,0.0,0.0,0.0,0.0,0.5,0.0,0.73,0.365,0.2,0.1,0.0,0.0,True,cubic,m-3m,221,28.6446,6.8049,1.0
O6 Si6,2,0.0,0.0,0.0,0.5,0.0,0.0,0.5,0.0,0.0,0.0,-3.0,1.54,0.77,0.5,0.25,1.0,0.5,True,hexagonal,622,181,14.1859,2.5802,0.4738
Ca2 Mn2 Si2,3,0.0,0.0,0.3333,0.0,0.0,0.0,0.3333,0.0,0.0,0.3333,0.0,0.9,0.3704,0.7,0.2867,1.0,0.4714,True,tetragonal,4/mmm,129,20.0251,3.4026,0.5106
H2 Si2,2,0.0,0.0,0.0,0.0,0.0,0.0,0.5,0.0,0.0,0.0,-2.5,0.3,0.15,0.85,0.425,2.0,1.0,True,trigonal,-3m,164,18.9149,1.2771,0.6734
La3 Pd3 Sn3,3,0.0,0.0,0.0,0.0,0.0,0.3333,0.0,0.0,0.3333,0.6667,0.3333,1.1,0.4723,0.55,0.2483,3.0,1.4142,True,hexagonal,-6m2,189,24.3564,8.2729,1.8293
I8 Li8 O24,3,0.0,0.2,0.0,0.6,0.2,0.0,0.0,0.0,0.0,0.0,-1.2,2.46,0.955,0.85,0.4045,3.0,1.2,True,tetragonal,4/m,86,15.5123,3.8931,0.6239
Dy3 In3 Ir3,3,0.0,0.0,0.0,0.0,0.0,0.3333,0.0,0.0,0.3333,0.3333,3.0,0.98,0.4014,0.4,0.1633,3.0,1.2472,True,hexagonal,-6m2,189,21.5869,12.0394,1.89
Ca2 Pt4,2,0.0,0.0,0.3333,0.0,0.0,0.0,0.0,0.0,0.0,0.6667,2.0,1.28,0.6034,0.45,0.2121,2.0,0.9428,True,cubic,m-3m,227,19.2023,12.402,1.0
Ge1 Li1 Mg2,3,0.0,0.25,0.5,0.0,0.0,0.0,0.25,0.0,0.0,0.0,0.25,1.03,0.3757,0.25,0.1031,2.0,0.7071,True,cubic,m-3m,225,19.215,2.7695,1.0
O10 S2 V2,3,0.0,0.0,0.0,0.7143,0.0,0.0,0.0,0.0,0.0,0.1429,-1.0,1.81,0.6544,0.75,0.2761,2.0,0.7284,True,tetragonal,4/m,85,12.165,3.1786,0.6572
K2 Nd2 Te8,3,0.0,0.1667,0.0,0.6667,0.0,0.1667,0.6667,0.0,0.1667,0.0,-0.6667,1.28,0.536,0.8,0.3115,4.0,1.2472,True,tetragonal,4/mmm,125,36.2484,5.2967,0.7714
Cl1 Na3 O1,3,0.0,0.6,0.0,0.2,0.2,0.0,0.0,0.0,0.0,0.0,-0.0,2.51,1.1644,1.2,0.506,1.0,0.4,True,cubic,m-3m,221,18.6941,2.1393,1.0
B1 Sc3 Tl1,3,0.0,0.0,0.0,0.0,0.0,0.0,0.2,0.0,0.0,0.6,2.6,0.68,0.2658,1.05,0.3499,4.0,1.2649,True,cubic,m-3m,221,20.6576,5.6279,1.0
Cl10 Dy4 Li2,3,0.0,0.125,0.0,0.0,0.625,0.25,0.0,0.0,0.25,0.0,0.25,2.18,0.9804,0.75,0.3264,6.0,2.2604,True,monoclinic,2/m,15,22.5538,4.6863,0.77
Fe6 O40 P12,3,0.0,0.0,0.0,0.6897,0.0,0.0,0.0,0.0,0.0,0.1034,-1.7931,1.61,0.6408,0.8,0.2682,2.0,0.6704,True,orthorhombic,222,20,14.8862,2.5901,0.684
Ca1 Mg1 Ni4,3,0.0,0.0,0.3333,0.0,0.0,0.0,0.0,0.0,0.0,0.6667,2.0,0.91,0.367,0.45,0.1658,1.0,0.3727,True,cubic,-43m,216,14.2672,5.8031,1.0
In2 Ni6,2,0.0,0.0,0.0,0.0,0.0,0.0,0.0,0.0,0.0,0.75,2.25,0.13,0.0563,0.2,0.0866,1.0,0.433,True,hexagonal,6/mmm,194,13.0665,9.2421,1.2604
P4 Zr4,2,0.0,0.0,0.0,0.0,0.0,0.0,0.0,0.0,0.0,0.5,0.5,0.86,0.43,0.55,0.275,2.0,1.0,True,hexagonal,6/mmm,194,18.7992,5.3969,0.2934
Co4 O28 P8,3,0.0,0.0,0.0,0.7,0.0,0.0,0.0,0.0,0.0,0.1,-1.8,1.56,0.6253,0.75,0.2534,2.0,0.6633,True,monoclinic,2/m,14,13.854,2.7912,0.7069
B2 Lu10 Si6,3,0.0,0.0,0.0,0.0,0.0,0.5556,0.4444,0.0,0.5556,0.0,0.6667,0.77,0.3329,0.9,0.3613,4.0,1.6405,True,hexagonal,6/mmm,193,20.5979,8.6878,1.352
Nd6 O14 Ru2,3,0.0,0.0,0.0,0.6364,0.0,0.2727,0.0,0.0,0.2727,0.0909,-0.1818,2.3,1.0173,1.25,0.5541,6.0,2.6442,True,orthorhombic,mmm,63,14.1963,6.8671,0.8722
Ce1 Zn1,2,0.0,0.0,0.0,0.0,0.0,0.5,0.0,0.0,0.5,0.5,2.5,0.53,0.265,0.5,0.25,4.0,2.0,True,cubic,m-3m,221,23.5664,7.2409,1.0
Cu2 La4 O24 Se8,4,0.0,0.0,0.0,0.8421,0.0,0.1053,0.0,0.0,0.1053,0.1579,-1.2632,2.34,0.7765,1.35,0.4435,6.0,1.8712,True,monoclinic,2/m,14,16.4069,4.5235,0.6619
Pt2 Zn2,2,0.0,0.0,0.0,0.0,0.0,0.0,0.0,0.0,0.0,1.0,2.0,0.63,0.315,0.0,0.0,2.0,1.0,True,tetragonal,4/mmm,123,14.6704,14.7425,0.872
B1 Zr1,2,0.0,0.0,0.0,0.0,0.0,0.0,0.5,0.0,0.0,0.5,3.5,0.71,0.355,0.7,0.35,3.0,1.5,True,cubic,m-3m,225,14.8202,5.7163,1.0
H32 O32 S4 Zn4,4,0.0,0.0,0.0,0.4444,0.0,0.0,0.0,0.0,0.0,0.0556,-1.3333,1.79,0.6441,1.1,0.2936,3.0,0.8032,True,monoclinic,2/m,14,9.0653,2.3765,0.4467
Hg33 K3,2,0.0,0.0833,0.0,0.0,0.0,0.0,0.0,0.0,0.0,0.9167,1.0,1.18,0.3261,0.7,0.1935,2.0,0.5528,True,cubic,m-3m,221,31.0562,10.0058,1.0
Ag20 Ge4 O16,3,0.0,0.0,0.0,0.4,0.0,0.0,0.1,0.0,0.0,0.5,-0.7,1.51,0.7336,1.0,0.4723,3.0,1.4177,True,monoclinic,2/m,14,15.2974,7.3378,0.6499
Mo6 O16,2,0.0,0.0,0.0,0.7273,0.0,0.0,0.0,0.0,0.0,0.2727,-0.3636,1.28,0.5701,0.85,0.3786,3.0,1.3361,True,trigonal,-3m,166,14.9797,4.1904,1.0
As16 Hg32 I24,3,0.0,0.0,0.0,0.0,0.3333,0.0,0.2222,0.0,0.0,0.4444,-0.5556,0.66,0.2912,0.35,0.1349,2.0,0.7857,True,cubic,m-3,205,33.3857,7.3663,1.0
Mn2 Si2 Y2,3,0.0,0.0,0.0,0.0,0.0,0.0,0.3333,0.0,0.0,0.6667,0.3333,0.68,0.2776,0.7,0.2867,2.0,0.8165,True,tetragonal,4/mmm,129,18.3982,5.1725,0.544
C4 Si2 Ti6,3,0.0,0.0,0.0,0.0,0.0,0.0,0.1667,0.0,0.0,0.5,0.0,1.01,0.452,0.7,0.3131,2.0,0.8975,True,hexagonal,6/mmm,194,12.1032,4.4751,0.1731
Ce3 In3 Ni3,3,0.0,0.0,0.0,0.0,0.0,0.3333,0.0,0.0,0.3333,0.3333,2.6667,0.79,0.3459,0.5,0.2055,4.0,1.6997,True,hexagonal,-6m2,189,20.8749,8.316,1.8232
La8 S16,2,0.0,0.0,0.0,0.0,0.0,0.3333,0.0,0.0,0.3333,0.3333,-0.3333,1.48,0.6977,0.95,0.4478,5.0,2.357,True,orthorhombic,mmm,62,23.2326,4.8373,0.2535
Se2 Tb2,2,0.0,0.0,0.0,0.5,0.0,0.5,0.0,0.0,0.5,0.0,0.5,2.55,1.275,0.6,0.3,4.0,2.0,True,hexagonal,6mm,186,33.3643,5.9198,0.634
Lu2 O8 Ta2,3,0.0,0.0,0.0,0.6667,0.0,0.1667,0.0,0.0,0.1667,0.1667,0.0,2.17,0.971,1.15,0.4793,4.0,1.8856,True,monoclinic,2/m,15,12.0056,9.6799,0.7825
Ag4 H8 O16 V4,4,0.0,0.0,0.0,0.5,0.0,0.0,0.0,0.0,0.0,0.25,-0.5,1.81,0.7438,1.35,0.4568,4.0,1.317,True,orthorhombic,mmm,62,13.3735,3.4894,0.2364
Eu2,1,0.0,0.0,0.0,0.0,0.0,1.0,0.0,0.0,1.0,0.0,2.0,0.0,0.0,0.0,0.0,0.0,0.0,True,hexagonal,6/mmm,194,46.2791,5.4526,0.6219
C1 Nd3 Sn1,3,0.0,0.0,0.0,0.0,0.0,0.6,0.0,0.0,0.6,0.0,0.2,1.41,0.5772,1.15,0.4477,6.0,2.4,True,cubic,m-3m,221,39.4122,4.7479,1.0
Cs4 H4 O16 Se4,4,0.0,0.1429,0.0,0.7143,0.0,0.0,0.0,0.0,0.0,0.0,-1.4286,2.65,0.9326,2.35,0.7303,5.0,1.5779,True,monoclinic,2/m,14,18.8768,3.4794,0.9169
As2 Fe1 Li1 O7,4,0.0,0.0909,0.0,0.6364,0.0,0.0,0.1818,0.0,0.0,0.0909,-1.5455,2.46,0.8459,0.85,0.3411,2.0,0.8907,True,monoclinic,2,5,12.1876,4.0209,0.8903
Ba6 Nd2 O18 Ru4,4,0.0,0.0,0.2,0.6,0.0,0.0667,0.0,0.0,0.0667,0.1333,-0.2,2.55,1.0824,1.55,0.6428,6.0,2.0591,True,hexagonal,6/mmm,194,15.5566,6.4213,0.4028
Cu2 In1 Lu1,3,0.0,0.0,0.0,0.0,0.0,0.25,0.0,0.0,0.25,0.5,2.5,0.63,0.2601,0.4,0.1658,2.0,0.8292,True,cubic,m-3m,225,17.5662,9.8519,1.0
Ag6 Sn2,2,0.0,0.0,0.0,0.0,0.0,0.0,0.0,0.0,0.0,0.75,-0.25,0.03,0.013,0.15,0.065,0.0,0.0,True,orthorhombic,mmm,59,19.5288,9.4025,0.8015
Ag2 Al1 Li1,3,0.0,0.25,0.0,0.0,0.0,0.0,0.0,0.0,0.0,0.5,1.5,0.95,0.3878,0.35,0.1436,3.0,1.299,True,cubic,m-3m,225,16.0351,6.4635,1.0
Pt3 Pu1,2,0.25,0.0,0.0,0.0,0.0,0.0,0.0,0.0,0.25,0.75,2.5,1.0,0.433,0.4,0.1732,3.0,1.299,True,cubic,m-3m,221,18.0062,19.1185,1.0
F24 I8 O12,3,0.0,0.0,0.0,0.2727,0.7273,0.0,0.0,0.0,0.0,0.0,-1.2727,1.32,0.4963,0.9,0.337,3.0,1.1571,True,monoclinic,2/m,14,17.2035,3.6486,0.8673
As3 Pd3 Yb3,3,0.0,0.0,0.0,0.0,0.0,0.3333,0.3333,0.0,0.3333,0.3333,0.6667,2.2,1.0324,0.6,0.2461,4.0,1.6997,True,hexagonal,-6m2,189,19.4697,10.0749,1.6471
Al8 Co12 O48 Si12,4,0.0,0.0,0.0,0.6,0.0,0.0,0.15,0.0,0.0,0.15,-1.2,1.83,0.7973,0.75,0.3168,2.0,0.7399,True,cubic,m-3m,230,9.6781,4.3496,1.0
As14 Re6,2,0.0,0.0,0.0,0.0,0.0,0.0,0.7,0.0,0.0,0.3,-0.9,0.28,0.1283,0.2,0.0917,2.0,0.9165,True,cubic,m-3m,229,17.4136,10.328,1.0
H8 Li4 O20 P4 Zn4,5,0.0,0.1,0.0,0.5,0.0,0.0,0.0,0.0,0.0,0.1,-1.2,2.46,0.8675,1.2,0.39,3.0,0.8307,True,orthorhombic,mm2,33,11.1724,2.7546,0.4689
O12 Rh4 Tb4,3,0.0,0.0,0.0,0.6,0.0,0.2,0.0,0.0,0.2,0.2,0.0,3.44,1.3377,1.15,0.4823,6.0,2.4,True,orthorhombic,mmm,62,11.85,8.6832,0.6891
Ag2 Ni1 O2,3,0.0,0.0,0.0,0.4,0.0,0.0,0.0,0.0,0.0,0.6,0.0,1.53,0.743,1.0,0.4583,3.0,1.3565,True,trigonal,-3m,166,12.394,8.211,1.0
Na4 O16 P4 V2,4,0.0,0.1538,0.0,0.6154,0.0,0.0,0.0,0.0,0.0,0.0769,-1.1538,2.51,0.9729,1.2,0.444,2.0,0.6343,True,tetragonal,4mm,100,13.4757,2.7191,0.6016
As1 Zr1,2,0.0,0.0,0.0,0.0,0.0,0.0,0.5,0.0,0.0,0.5,0.5,0.85,0.425,0.4,0.2,1.0,0.5,True,cubic,m-3m,225,20.5844,6.7015,1.0
Al3 Ho3 Ni3,3,0.0,0.0,0.0,0.0,0.0,0.3333,0.0,0.0,0.3333,0.3333,2.6667,0.68,0.2782,0.5,0.216,5.0,2.1602,True,hexagonal,-6m2,189,17.9204,7.7405,1.771
Cl1 F1 Na6 O8 S2,5,0.0,0.3333,0.0,0.4444,0.1111,0.0,0.0,0.0,0.0,0.0,-0.8889,3.05,1.1664,1.3,0.5428,1.0,0.5,True,cubic,m-3m,225,14.7242,2.4091,1.0
Ag6 Ge10 P12,3,0.0,0.0,0.0,0.0,0.0,0.0,0.3571,0.0,0.0,0.2143,-2.5,0.26,0.108,0.6,0.228,2.0,0.7726,True,cubic,-43m,217,20.3393,5.0889,1.0
Al1 Ti1,2,0.0,0.0,0.0,0.0,0.0,0.0,0.0,0.0,0.0,0.5,3.5,0.07,0.035,0.15,0.075,1.0,0.5,True,tetragonal,4/mmm,123,16.2092,3.8339,0.6948
Bi2 Mg4 O12 V2,4,0.0,0.0,0.2,0.6,0.0,0.0,0.0,0.0,0.0,0.1,0.0,2.13,0.9358,1.0,0.4384,4.0,1.249,True,orthorhombic,mmm,63,13.9,4.8326,0.7415
Ba2 O18 Ti8,3,0.0,0.0,0.0714,0.6429,0.0,0.0,0.0,0.0,0.0,0.2857,-0.0,2.55,0.985,1.55,0.4892,4.0,1.2454,True,orthorhombic,mmm,59,12.8413,4.367,0.2595
C1 Mn3 Sn1,3,0.0,0.0,0.0,0.0,0.0,0.0,0.0,0.0,0.0,0.6,-0.4,1.0,0.3926,0.75,0.2857,3.0,0.9798,True,cubic,m-3m,221,11.8278,8.2982,1.0
Ca24 N16,2,0.0,0.0,0.6,0.0,0.0,0.0,0.0,0.0,0.0,0.0,-0.0,2.04,0.9994,1.15,0.5634,2.0,0.9798,True,cubic,m-3,206,18.8898,2.6064,1.0
Al2 N2,2,0.0,0.0,0.0,0.0,0.0,0.0,0.0,0.0,0.0,0.0,0.0,1.43,0.715,0.6,0.3,1.0,0.5,True,hexagonal,6/mmm,194,9.9459,3.4216,0.7909
Cs2 N18 Sr2,3,0.0,0.0909,0.0909,0.0,0.0,0.0,0.0,0.0,0.0,0.0,-2.1818,2.25,0.8377,1.95,0.6491,4.0,1.3667,True,monoclinic,2/m,15,17.4635,2.996,0.7647
Na24 Te24,2,0.0,0.5,0.0,0.5,0.0,0.0,0.5,0.0,0.0,0.0,-0.5,1.17,0.585,0.4,0.2,2.0,1.0,True,orthorhombic,mmm,60,30.8598,4.0516,0.5717
Co2 Sc4 Si4,3,0.0,0.0,0.0,0.0,0.0,0.0,0.4,0.0,0.0,0.6,0.0,0.54,0.2614,0.5,0.2236,1.0,0.4899,True,monoclinic,2/m,12,16.1823,4.2075,0.4644
Ba1 La1 Mg1 O6 Ta1,5,0.0,0.0,0.2,0.6,0.0,0.1,0.0,0.0,0.1,0.2,0.0,2.55,1.1068,1.55,0.5996,6.0,2.1564,True,cubic,-43m,216,13.4114,7.1501,1.0
P132 Th24,2,0.1538,0.0,0.0,0.0,0.0,0.0,0.0,0.0,0.1538,0.0,-1.9231,0.89,0.3211,0.8,0.2886,6.0,2.1648,True,monoclinic,2/m,14,19.4405,5.2878,0.5308
Mn4 O14 Y4,3,0.0,0.0,0.0,0.6364,0.0,0.0,0.0,0.0,0.0,0.3636,-0.3636,2.22,0.9935,1.2,0.4959,3.0,1.2398,True,cubic,m-3m,227,11.5606,5.219,1.0
H6 Pu2,2,0.25,0.0,0.0,0.0,0.0,0.0,0.0,0.0,0.25,0.0,0.25,0.92,0.3984,1.5,0.6495,8.0,3.4641,True,hexagonal,6/mmm,194,10.0327,10.2214,0.5566
Ir3 Zr1,2,0.0,0.0,0.0,0.0,0.0,0.0,0.0,0.0,0.0,1.0,3.25,0.87,0.3767,0.2,0.0866,1.0,0.433,True,cubic,m-3m,221,15.8499,17.4928,1.0
Lu1 P1 Pt1,3,0.0,0.0,0.0,0.0,0.0,0.3333,0.0,0.0,0.3333,0.3333,0.6667,1.01,0.4564,0.75,0.3064,3.0,1.4142,True,hexagonal,-6m2,187,18.3916,12.0692,1.0862
O12 Sr6 U2,3,0.1,0.0,0.3,0.6,0.0,0.0,0.0,0.0,0.1,0.0,0.0,2.49,1.1731,1.4,0.6588,7.0,2.245,True,monoclinic,2,4,16.5722,5.9808,0.6947
Cu2 P2 Si2 Zr2,4,0.0,0.0,0.0,0.0,0.0,0.0,0.25,0.0,0.0,0.5,-0.25,0.86,0.312,0.55,0.2151,2.0,0.8292,True,tetragonal,4/mmm,129,15.3769,5.7728,0.3772
Fe4 La1 Sb12,3,0.0,0.0,0.0,0.0,0.0,0.0588,0.7059,0.0,0.0588,0.2941,-1.4706,0.95,0.23,0.55,0.1224,4.0,0.8725,True,cubic,m-3,204,22.8048,7.8101,1.0
Ga4 Te6,2,0.0,0.0,0.0,0.6,0.0,0.0,0.6,0.0,0.0,0.0,0.0,0.29,0.1421,0.1,0.049,1.0,0.4899,True,monoclinic,m,9,33.1842,5.2266,1.1648
Cu2 O8 U2,3,0.1667,0.0,0.0,0.6667,0.0,0.0,0.0,0.0,0.1667,0.1667,0.0,2.06,0.8617,1.15,0.4625,7.0,2.5658,True,monoclinic,2/m,14,13.4609,7.5162,0.8014
N8 Zr6,2,0.0,0.0,0.0,0.0,0.0,0.0,0.0,0.0,0.0,0.4286,0.0,1.71,0.8462,0.9,0.4454,3.0,1.4846,True,cubic,-43m,220,11.287,6.9293,1.0
Al1 Ni4 U1,3,0.1667,0.0,0.0,0.0,0.0,0.0,0.0,0.0,0.1667,0.6667,2.8333,0.53,0.2066,0.5,0.1607,6.0,1.972,True,cubic,-43m,216,13.5923,10.1763,1.0
Cu1 Li2 Sb1,3,0.0,0.5,0.0,0.0,0.0,0.0,0.25,0.0,0.0,0.25,0.25,1.07,0.5003,0.1,0.0433,3.0,1.299,True,cubic,-43m,216,15.88,5.2072,1.0
O4 Sr1 U1,3,0.1667,0.0,0.1667,0.6667,0.0,0.0,0.0,0.0,0.1667,0.0,0.0,2.49,1.0796,1.4,0.6054,7.0,2.6247,True,trigonal,-3m,166,14.0598,7.6699,1.0
Co2 La2 O6,3,0.0,0.0,0.0,0.6,0.0,0.2,0.0,0.0,0.2,0.4,-0.2,2.34,0.9866,1.35,0.5483,6.0,2.3324,True,trigonal,-3,148,11.7501,6.9484,1.0
Br4 Cs2 Li2,3,0.0,0.5,0.0,0.0,0.5,0.0,0.0,0.0,0.0,0.0,0.0,2.17,1.0397,1.45,0.5973,4.0,1.4142,True,tetragonal,4/mmm,129,34.6485,3.5903,0.5161
Nb2 O8 Pr2,3,0.0,0.0,0.0,0.6667,0.0,0.1667,0.0,0.0,0.1667,0.1667,0.0,2.31,0.9875,1.25,0.5083,6.0,2.2913,True,monoclinic,2/m,15,14.1587,5.8213,0.771
Ca8 Mn4 O14,3,0.0,0.0,0.3077,0.5385,0.0,0.0,0.0,0.0,0.0,0.1538,-0.1538,2.44,1.1387,1.2,0.547,2.0,0.997,True,orthorhombic,mmm,64,13.0937,3.7283,0.5454
O28 P8 Rb4 Y4,4,0.0,0.0909,0.0,0.6364,0.0,0.0,0.0,0.0,0.0,0.0909,-1.4545,2.62,0.9544,1.75,0.5676,3.0,1.1355,True,monoclinic,2/m,14,16.8596,3.1188,0.7098
Ca3 Cl2 Cu2 O4,4,0.0,0.0,0.2727,0.3636,0.1818,0.0,0.0,0.0,0.0,0.1818,-0.0,2.44,1.0375,1.2,0.4862,2.0,0.9,True,tetragonal,4/mmm,139,14.8134,3.8952,0.3468
Fe1 Sb1 Zn1,3,0.0,0.0,0.0,0.0,0.0,0.0,0.3333,0.0,0.0,0.6667,0.3333,0.4,0.1636,0.1,0.0408,1.0,0.4714,True,cubic,-43m,216,20.055,6.7071,1.0
Cd2 Mo2 O8,3,0.0,0.0,0.0,0.6667,0.0,0.0,0.0,0.0,0.0,0.3333,-0.3333,1.75,0.727,0.95,0.4252,3.0,1.4142,True,triclinic,-1,2,13.1322,5.7396,0.7716
Co4 Dy4 O12,3,0.0,0.0,0.0,0.6,0.0,0.2,0.0,0.0,0.2,0.2,-0.2,2.22,0.9491,1.15,0.4823,6.0,2.3324,True,orthorhombic,mmm,62,11.0685,8.0842,0.6961
Cd1 Ce1,2,0.0,0.0,0.0,0.0,0.0,0.5,0.0,0.0,0.5,0.5,2.5,0.57,0.285,0.3,0.15,3.0,1.5,True,cubic,m-3m,221,28.5443,7.3453,1.0
C12 F24 O12 Ru2 Sb4,5,0.0,0.0,0.0,0.2222,0.4444,0.0,0.0741,0.0,0.0,0.037,-1.8889,1.93,0.7031,0.95,0.2718,3.0,0.9428,True,tetragonal,4/mmm,128,16.7534,2.7188,0.6668
O24 P16 Se8,3,0.0,0.0,0.0,0.6667,0.0,0.0,0.0,0.0,0.0,0.0,-2.3333,1.25,0.5776,0.55,0.2305,2.0,0.7454,True,monoclinic,2/m,14,21.0237,2.4868,0.5525
C1 Er3 In1,3,0.0,0.0,0.0,0.0,0.0,0.6,0.0,0.0,0.6,0.0,1.6,1.31,0.5144,1.05,0.4074,6.0,2.4,True,cubic,m-3m,221,33.8905,6.16,1.0
Na4 O8 Se2,3,0.0,0.2857,0.0,0.7143,0.0,0.0,0.0,0.0,0.0,0.0,-1.1429,2.51,1.0956,1.2,0.5263,2.0,0.7284,True,orthorhombic,mmm,70,14.6449,3.0604,0.8486
As2 Ca1 O6,3,0.0,0.0,0.1111,0.6667,0.0,0.0,0.2222,0.0,0.0,0.0,-1.7778,2.44,0.843,1.2,0.4024,2.0,0.9428,True,trigonal,-3m,162,12.0018,4.3954,0.9543
Ir2 P1,2,0.0,0.0,0.0,0.0,0.0,0.0,0.0,0.0,0.0,0.6667,1.0,0.01,0.0047,0.35,0.165,3.0,1.4142,True,cubic,m-3m,225,14.5986,15.7504,1.0
Ag4 C4 N4 S4,4,0.0,0.0,0.0,0.0,0.0,0.0,0.0,0.0,0.0,0.25,-2.0,1.11,0.3946,0.95,0.3781,3.0,1.2247,True,monoclinic,2/m,15,20.3759,3.381,0.7359
N12 O16 S14,3,0.0,0.0,0.0,0.381,0.0,0.0,0.0,0.0,0.0,0.0,-2.2857,0.86,0.3626,0.4,0.1796,1.0,0.4714,True,tetragonal,-42m,113,18.1726,1.8993,0.4256
Li4 O6 Ti2,3,0.0,0.3333,0.0,0.5,0.0,0.0,0.0,0.0,0.0,0.1667,-0.0,2.46,1.1519,0.85,0.417,2.0,0.7454,True,monoclinic,2/m,15,8.8846,3.4186,1.1032
Ir12 Nd20,2,0.0,0.0,0.0,0.0,0.0,0.625,0.0,0.0,0.625,0.375,3.0,1.06,0.5132,0.5,0.2421,2.0,0.9682,True,tetragonal,4/mmm,130,26.1804,10.2899,0.5865
Na2 O2 Rb2,3,0.0,0.6667,0.0,0.3333,0.0,0.0,0.0,0.0,0.0,0.0,0.0,2.62,1.21,1.75,0.7307,3.0,1.2472,True,tetragonal,4/mmm,129,18.9056,3.6438,0.621
Cu2 Gd4 Rb2 S8,4,0.0,0.125,0.0,0.0,0.0,0.25,0.0,0.0,0.25,0.125,0.125,1.76,0.7061,1.35,0.4827,5.0,2.0578,True,orthorhombic,mmm,63,24.2404,5.0673,0.2902
O32 Pr12 Re4,3,0.0,0.0,0.0,0.6667,0.0,0.25,0.0,0.0,0.25,0.0833,-0.25,2.31,1.0166,1.25,0.5449,6.0,2.6405,True,monoclinic,2/m,14,13.9408,7.3148,0.4353
V4 Zn5,2,0.0,0.0,0.0,0.0,0.0,0.0,0.0,0.0,0.0,1.0,3.3333,0.02,0.0099,0.0,0.0,0.0,0.0,True,tetragonal,4/mmm,139,14.0569,6.9672,0.4937
Pr2 S4,2,0.0,0.0,0.0,0.0,0.0,0.3333,0.0,0.0,0.3333,0.0,-0.3333,1.45,0.6835,0.85,0.4007,5.0,2.357,True,cubic,m-3m,227,20.9496,5.4173,1.0
Cu2 O4 Sr2,3,0.0,0.0,0.25,0.5,0.0,0.0,0.0,0.0,0.0,0.25,0.0,2.49,1.062,1.4,0.5846,3.0,1.299,True,orthorhombic,mmm,63,14.7145,5.1676,0.4376
C8 K8 O24,3,0.0,0.2,0.0,0.6,0.0,0.0,0.0,0.0,0.0,0.0,-1.8,2.62,1.0191,1.6,0.6312,2.0,0.8,True,monoclinic,2/m,14,16.12,2.0418,0.6584
Cs4 Cu4 Se16,3,0.0,0.1667,0.0,0.6667,0.0,0.0,0.0,0.0,0.0,0.1667,-0.8333,1.76,0.6522,1.45,0.5305,2.0,0.7454,True,orthorhombic,222,19,31.2643,4.5349,0.3846
Pr1 Rb1 S2,3,0.0,0.25,0.0,0.0,0.0,0.25,0.0,0.0,0.25,0.0,0.0,1.76,0.8099,1.35,0.5777,5.0,2.0463,True,trigonal,-3m,166,30.3441,3.9744,1.0
I4 K4 O12,3,0.0,0.2,0.0,0.6,0.2,0.0,0.0,0.0,0.0,0.0,-1.2,2.62,1.016,1.6,0.64,3.0,1.2649,True,triclinic,1,1,18.5915,3.8228,0.9996
B3 Cl6 N3,3,0.0,0.0,0.0,0.0,0.5,0.0,0.25,0.0,0.0,0.0,-0.5,1.12,0.4702,0.35,0.1436,1.0,0.5,True,trigonal,3,146,22.3788,1.7757,1.0
O28 P8 Si4,3,0.0,0.0,0.0,0.7,0.0,0.0,0.1,0.0,0.0,0.0,-2.4,1.54,0.6216,0.5,0.2002,1.0,0.4583,True,monoclinic,2/m,14,11.5241,2.9111,0.3215
N2 S1 U2,3,0.4,0.0,0.0,0.0,0.0,0.0,0.0,0.0,0.4,0.0,0.8,1.66,0.757,1.1,0.4984,7.0,3.2863,True,trigonal,-3m,164,16.5067,10.7869,0.582
Au1 Tm1,2,0.0,0.0,0.0,0.0,0.0,0.5,0.0,0.0,0.5,0.5,3.0,1.29,0.645,0.4,0.2,2.0,1.0,True,cubic,m-3m,221,22.5546,13.4694,1.0
Ge4 Ni2 Tb2,3,0.0,0.0,0.0,0.0,0.0,0.25,0.5,0.0,0.25,0.25,-0.75,2.01,0.8569,0.5,0.2062,4.0,1.7321,True,orthorhombic,mmm,63,18.0367,8.3525,0.4877
As4 O26 Pb16,3,0.0,0.0,0.0,0.5652,0.0,0.0,0.087,0.0,0.0,0.0,-0.6957,1.26,0.5665,1.2,0.5574,4.0,1.861,True,monoclinic,2/m,12,19.1289,7.6068,0.5143
F6 Sb2,2,0.0,0.0,0.0,0.0,0.75,0.0,0.25,0.0,0.0,0.0,-1.5,1.93,0.8357,0.95,0.4114,3.0,1.299,True,orthorhombic,mm2,40,17.527,4.2339,0.6493
Te4 U2,2,0.3333,0.0,0.0,0.6667,0.0,0.0,0.6667,0.0,0.3333,0.0,0.6667,0.72,0.3394,0.35,0.165,4.0,1.8856,True,orthorhombic,mmm,71,30.1012,9.0697,0.5369
Cl32 Li4 Nb12,3,0.0,0.0833,0.0,0.0,0.6667,0.0,0.0,0.0,0.0,0.25,0.6667,2.18,0.8232,0.45,0.2121,3.0,0.9538,True,orthorhombic,mmm,64,24.9363,3.1591,0.6858
Lu4 O14 Sn4,3,0.0,0.0,0.0,0.6364,0.0,0.1818,0.0,0.0,0.1818,0.0,-1.4545,2.17,0.9022,1.15,0.4895,4.0,1.7104,True,cubic,m-3m,227,12.6847,8.3228,1.0
Mo8 N32 O8 Sr32,4,0.0,0.0,0.4,0.1,0.0,0.0,0.0,0.0,0.0,0.1,-0.2,2.49,1.0292,1.4,0.6442,3.0,1.5,True,monoclinic,2/m,11,17.7922,4.8386,0.6058
Fe2 Se2,2,0.0,0.0,0.0,0.5,0.0,0.0,0.0,0.0,0.0,0.5,0.0,0.72,0.36,0.25,0.125,0.0,0.0,True,tetragonal,4/mmm,129,19.5002,5.7397,0.6346
O48 S12 Sb8,3,0.0,0.0,0.0,0.7059,0.0,0.0,0.1176,0.0,0.0,0.0,-2.1176,1.39,0.5083,0.85,0.2901,3.0,0.9772,True,monoclinic,2/m,14,13.9207,3.7309,0.333
As2,1,0.0,0.0,0.0,0.0,0.0,0.0,1.0,0.0,0.0,0.0,-3.0,0.0,0.0,0.0,0.0,0.0,0.0,True,trigonal,-3m,166,22.4537,5.5407,1.0
As4 Cd2,2,0.0,0.0,0.0,0.0,0.0,0.0,0.6667,0.0,0.0,0.3333,-1.3333,0.49,0.231,0.4,0.1886,1.0,0.4714,True,tetragonal,422,98,26.4331,5.4916,0.764
Gd1 Ni2 P2,3,0.0,0.0,0.0,0.0,0.0,0.2,0.0,0.0,0.2,0.4,0.2,0.99,0.3623,0.8,0.295,5.0,1.8547,True,tetragonal,4/mmm,139,14.2858,7.8247,0.7144
Ba2 C2 O6,3,0.0,0.0,0.2,0.6,0.0,0.0,0.0,0.0,0.0,0.0,-1.6,2.55,0.9928,1.55,0.6112,4.0,1.6,True,monoclinic,2,4,15.1326,4.3308,0.757
Co1 O3 Sm1,3,0.0,0.0,0.0,0.6,0.0,0.2,0.0,0.0,0.2,0.2,-0.2,2.27,0.9646,1.25,0.5148,6.0,2.3324,True,cubic,m-3m,221,10.8041,7.9089,1.0