formula,numberOfSpecies,fracActinoid,fracAlkali,fracAlkaline,fracChalcogen,fracHalogen,fracLanthanoid,fracMetalloid,fracNobleGas,fracRareEarth,fracTransitionMetal,electronsPerAtom,electronegativityRange,electronegativityStd,radiiRange,radiiStd,rowRange,rowStd,ordered,crystalSystem,pointGroup,spaceGroupNumber,volumePerSite,density,c_a
As12 K12 Na8 Sn4,4,0.0,0.5556,0.0,0.0,0.0,0.0,0.3333,0.0,0.0,0.0,-0.8889,1.36,0.6311,1.05,0.4391,2.0,0.5666,True,orthorhombic,mmm,64,30.7726,3.0383,0.4397
Ba4 C6 Ce2 F2 O18,5,0.0,0.0,0.125,0.5625,0.0625,0.0625,0.0,0.0,0.0625,0.0,-1.5,3.09,0.9796,1.65,0.5653,6.0,1.8666,True,monoclinic,2/m,11,14.0215,4.5432,0.3882
Cu2 O12 P4,3,0.0,0.0,0.0,0.6667,0.0,0.0,0.0,0.0,0.0,0.1111,-1.7778,1.54,0.6397,0.75,0.2615,2.0,0.6849,True,monoclinic,2/m,15,11.7872,3.467,1.345
Cr2 O8 Sm2,3,0.0,0.0,0.0,0.6667,0.0,0.1667,0.0,0.0,0.1667,0.1667,-0.3333,2.27,0.965,1.25,0.5003,6.0,2.2111,True,tetragonal,4/mmm,141,14.4073,5.1165,1.0
Mn2 Pd2,2,0.0,0.0,0.0,0.0,0.0,0.0,0.0,0.0,0.0,1.0,2.0,0.65,0.325,0.0,0.0,1.0,0.5,True,tetragonal,4/mmm,123,15.2912,8.7613,0.7911
Ca2 Cu6 P5,3,0.0,0.0,0.1538,0.0,0.0,0.0,0.0,0.0,0.0,0.4615,0.0769,1.19,0.3953,0.8,0.272,1.0,0.4865,True,tetragonal,4/mmm,139,15.2248,5.1707,0.3169
Er4 Ge4 Pt4,3,0.0,0.0,0.0,0.0,0.0,0.3333,0.3333,0.0,0.3333,0.3333,0.3333,1.04,0.4406,0.5,0.216,4.0,1.633,True,orthorhombic,mmm,62,19.3229,12.4603,0.5727
Gd1 O1,2,0.0,0.0,0.0,0.5,0.0,0.5,0.0,0.0,0.5,0.0,0.5,2.24,1.12,1.2,0.6,6.0,3.0,True,cubic,-43m,216,19.5986,7.3395,1.0
Al8 Ca1 Mn4,3,0.0,0.0,0.0769,0.0,0.0,0.0,0.0,0.0,0.0,0.3077,2.6154,0.61,0.1595,0.55,0.1496,1.0,0.4865,True,tetragonal,4/mmm,139,15.5261,3.9134,0.7691
Fe4 Ge4,2,0.0,0.0,0.0,0.0,0.0,0.0,0.5,0.0,0.0,0.5,-1.0,0.18,0.09,0.15,0.075,0.0,0.0,True,cubic,23,198,12.736,8.376,1.0
Cl24 Ga4 Sb4,3,0.0,0.0,0.0,0.0,0.75,0.0,0.125,0.0,0.0,0.0,-0.75,1.35,0.536,0.45,0.1667,2.0,0.696,True,monoclinic,2/m,14,35.26,2.3794,0.5811
As12 Co4,2,0.0,0.0,0.0,0.0,0.0,0.0,0.75,0.0,0.0,0.25,-1.75,0.3,0.1299,0.2,0.0866,0.0,0.0,True,cubic,m-3,204,17.6782,6.662,1.0
Al40 Ca4 Cr8,3,0.0,0.0,0.0769,0.0,0.0,0.0,0.0,0.0,0.0,0.1538,2.9231,0.66,0.1657,0.55,0.1499,1.0,0.4213,True,tetragonal,4/mmm,129,16.4543,3.213,0.4006
Co2 Ge2 La1,3,0.0,0.0,0.0,0.0,0.0,0.2,0.4,0.0,0.2,0.6,-0.2,0.91,0.343,0.7,0.2638,4.0,1.6,True,tetragonal,4/mmm,139,17.3057,7.7156,0.6982
C1 Fe2 Si2 Tb2,4,0.0,0.0,0.0,0.0,0.0,0.2857,0.2857,0.0,0.2857,0.2857,-0.2857,2.55,0.934,1.05,0.3512,6.0,2.2588,True,monoclinic,2/m,12,15.5848,7.576,0.6941
Ba1 Bi1 La1 O6 Sr1,5,0.0,0.0,0.2,0.6,0.0,0.1,0.0,0.0,0.1,0.1,-0.2,2.55,1.1158,1.55,0.6615,6.0,2.1932,True,cubic,-43m,216,17.2195,6.4498,1.0
F8 Ga8 K8 O32 P8,5,0.0,0.125,0.0,0.5,0.125,0.0,0.0,0.0,0.0,0.0,-1.0,3.16,1.0186,1.7,0.5449,2.0,0.857,True,orthorhombic,mm2,33,13.6441,3.3893,0.4941
Mo2 O12 Y5,3,0.0,0.0,0.0,0.6316,0.0,0.0,0.0,0.0,0.0,0.3684,-0.0526,2.22,0.976,1.2,0.5392,3.0,1.4471,True,monoclinic,2/m,12,13.6359,5.3095,0.7615
H1 Rb1,2,0.0,0.5,0.0,0.0,0.0,0.0,0.0,0.0,0.0,0.0,0.0,1.38,0.69,2.1,1.05,4.0,2.0,True,cubic,m-3m,225,27.5026,2.6106,1.0
Cr6 Li6 O32 P8,4,0.0,0.1154,0.0,0.6154,0.0,0.0,0.0,0.0,0.0,0.1154,-1.2308,2.46,0.9164,0.85,0.344,2.0,0.6837,True,monoclinic,2/m,15,12.4212,2.8624,0.609
Er4 Mn4 Si4,3,0.0,0.0,0.0,0.0,0.0,0.3333,0.3333,0.0,0.3333,0.3333,0.3333,0.66,0.2696,0.65,0.2656,5.0,2.1602,True,orthorhombic,mmm,62,17.6828,7.8344,0.536
Ba3 Cr2 O8,3,0.0,0.0,0.2308,0.6154,0.0,0.0,0.0,0.0,0.0,0.1538,-0.3077,2.55,1.1155,1.55,0.6494,4.0,1.6712,True,trigonal,-3m,166,16.4358,5.0047,1.0
Se2 V1,2,0.0,0.0,0.0,0.6667,0.0,0.0,0.0,0.0,0.0,0.3333,0.3333,0.92,0.4337,0.2,0.0943,0.0,0.0,True,trigonal,-3m,164,22.7305,5.086,0.4791
P2 Rh3,2,0.0,0.0,0.0,0.0,0.0,0.0,0.0,0.0,0.0,0.6,0.6,0.09,0.0441,0.35,0.1715,2.0,0.9798,True,tetragonal,-42m,115,14.2423,8.6433,0.5355
Al1 C1 Tb3,3,0.0,0.0,0.0,0.0,0.0,0.6,0.0,0.0,0.6,0.0,1.6,2.55,1.0615,1.05,0.4176,6.0,2.7129,True,cubic,m-3m,221,30.8969,5.5439,1.0
O28 Sr8 V8,3,0.0,0.0,0.1818,0.6364,0.0,0.0,0.0,0.0,0.0,0.1818,0.0,2.49,1.0544,1.4,0.553,3.0,1.2398,True,triclinic,-1,2,15.3296,3.8318,0.5452
Ag1 Pr1,2,0.0,0.0,0.0,0.0,0.0,0.5,0.0,0.0,0.5,0.5,2.0,0.8,0.4,0.25,0.125,3.0,1.5,True,cubic,m-3m,221,27.2421,7.5821,1.0
Li1,1,0.0,1.0,0.0,0.0,0.0,0.0,0.0,0.0,0.0,0.0,1.0,0.0,0.0,0.0,0.0,0.0,0.0,True,cubic,m-3m,229,20.1207,0.5728,1.0
Ba2 Cu2 Dy2 Te6,4,0.0,0.0,0.1667,0.5,0.0,0.1667,0.5,0.0,0.1667,0.1667,0.1667,1.21,0.4838,0.8,0.2898,4.0,1.2583,True,orthorhombic,mmm,63,31.7233,6.5097,0.3882
Cl2 O2 Sm2,3,0.0,0.0,0.0,0.3333,0.3333,0.3333,0.0,0.0,0.3333,0.0,0.0,2.27,1.0106,1.25,0.5212,6.0,2.6247,True,tetragonal,4/mmm,129,18.255,6.1192,0.5894
C4 Ho8 N24 Si16,4,0.0,0.0,0.0,0.0,0.0,0.1538,0.3077,0.0,0.1538,0.0,-2.4615,1.81,0.6911,1.1,0.3894,6.0,2.0812,True,monoclinic,2/m,14,11.8083,5.8225,0.5734
Bi2 C1 O5,3,0.0,0.0,0.0,0.625,0.0,0.0,0.0,0.0,0.0,0.0,-1.0,1.42,0.6211,1.0,0.427,4.0,1.7321,True,monoclinic,m,8,14.2227,7.4425,0.6058
Cu2 Lu1 Si2,3,0.0,0.0,0.0,0.0,0.0,0.2,0.4,0.0,0.2,0.4,-0.2,0.63,0.252,0.65,0.2379,3.0,1.0954,True,tetragonal,4/mmm,139,15.3021,7.7748,0.6845
Ag2 Rb2 S6 U2,4,0.1667,0.1667,0.0,0.0,0.0,0.0,0.0,0.0,0.1667,0.1667,0.3333,1.76,0.6817,1.35,0.505,6.0,2.1344,True,orthorhombic,mmm,63,26.9279,5.4221,0.3911
Os1 Sc6 Te2,3,0.0,0.0,0.0,0.2222,0.0,0.0,0.2222,0.0,0.0,0.7778,2.0,0.84,0.3656,0.3,0.1133,2.0,0.6849,True,hexagonal,-6m2,189,22.4115,5.8876,1.9934
Mn8 O24 P6,3,0.0,0.0,0.0,0.6316,0.0,0.0,0.0,0.0,0.0,0.2105,-1.3158,1.89,0.8027,0.8,0.3261,2.0,0.8154,True,monoclinic,m,9,11.8314,3.7279,0.6197
O8 Ti3 Zn2,3,0.0,0.0,0.0,0.6154,0.0,0.0,0.0,0.0,0.0,0.3846,0.0,1.9,0.9036,0.8,0.3798,2.0,0.973,True,trigonal,-3m,166,11.5509,4.45,0.9845
F6 Mg1 Rh1,3,0.0,0.0,0.125,0.0,0.75,0.0,0.0,0.0,0.0,0.125,-0.125,2.67,0.9767,1.0,0.4023,3.0,1.0,True,trigonal,-3,148,13.19,3.7957,1.0
Pu1 Te1,2,0.5,0.0,0.0,0.5,0.0,0.0,0.5,0.0,0.5,0.0,1.0,0.82,0.41,0.35,0.175,4.0,2.0,True,cubic,m-3m,225,31.1387,9.9082,1.0
Te32 Tl32,2,0.0,0.0,0.0,0.5,0.0,0.0,0.5,0.0,0.0,0.0,-0.5,0.48,0.24,0.5,0.25,1.0,0.5,True,tetragonal,4/mmm,137,34.1976,8.0601,0.3414
Lu1,1,0.0,0.0,0.0,0.0,0.0,1.0,0.0,0.0,1.0,0.0,3.0,0.0,0.0,0.0,0.0,0.0,0.0,True,cubic,m-3m,229,29.8524,9.7325,1.0
C6 Fe14,2,0.0,0.0,0.0,0.0,0.0,0.0,0.0,0.0,0.0,0.7,0.2,0.72,0.3299,0.7,0.3208,2.0,0.9165,True,hexagonal,6mm,186,9.0681,7.8182,1.5186
Pt1,1,0.0,0.0,0.0,0.0,0.0,0.0,0.0,0.0,0.0,1.0,2.0,0.0,0.0,0.0,0.0,0.0,0.0,True,cubic,m-3m,225,15.7229,20.6034,1.0
Ca4 Fe2 Mo2 O12,4,0.0,0.0,0.2,0.6,0.0,0.0,0.0,0.0,0.0,0.2,-0.2,2.44,1.005,1.2,0.5101,3.0,1.1358,True,monoclinic,2/m,14,12.1904,4.4671,0.71
Cu4 O38 Rb4 Si16,4,0.0,0.0645,0.0,0.6129,0.0,0.0,0.2581,0.0,0.0,0.0645,-2.0645,2.62,0.8744,1.75,0.4627,3.0,0.8716,True,monoclinic,2/m,11,15.9461,2.777,0.7274
Cu4 In2,2,0.0,0.0,0.0,0.0,0.0,0.0,0.0,0.0,0.0,0.6667,2.3333,0.12,0.0566,0.2,0.0943,1.0,0.4714,True,hexagonal,6/mmm,194,15.3765,8.7081,0.8298
O12 Rb2 Te4,3,0.0,0.1111,0.0,0.8889,0.0,0.0,0.2222,0.0,0.0,0.0,-1.6667,2.62,0.9027,1.75,0.5865,3.0,1.4142,True,cubic,m-3m,227,16.1512,4.9883,1.0
Ba6 O18 W4,3,0.0,0.0,0.2143,0.6429,0.0,0.0,0.0,0.0,0.0,0.1429,-0.2857,2.55,1.0339,1.55,0.6342,4.0,1.9166,True,trigonal,-3m,167,15.7292,6.9651,1.0
Eu8 I20 K4,3,0.0,0.125,0.0,0.0,0.625,0.25,0.0,0.0,0.25,0.0,0.0,2.66,1.1794,0.8,0.2924,4.0,1.4087,True,monoclinic,2/m,14,40.681,4.9878,0.6262
Cr2 Lu1 Si2,3,0.0,0.0,0.0,0.0,0.0,0.2,0.4,0.0,0.2,0.4,0.2,0.63,0.2305,0.65,0.2408,3.0,1.0954,True,tetragonal,4/mmm,139,15.3969,7.2287,0.6403
S1 Zn1,2,0.0,0.0,0.0,0.0,0.0,0.0,0.0,0.0,0.0,0.5,0.0,0.93,0.465,0.35,0.175,1.0,0.5,True,cubic,-43m,216,20.2378,3.9989,1.0
Au2 K6 Se4,3,0.0,0.5,0.0,0.3333,0.0,0.0,0.0,0.0,0.0,0.1667,0.3333,1.73,0.8633,1.05,0.4962,2.0,0.7454,True,trigonal,-3m,167,36.2678,3.6032,1.0
Ag2 As4 Nd2,3,0.0,0.0,0.0,0.0,0.0,0.25,0.5,0.0,0.25,0.25,-0.5,1.04,0.4266,0.7,0.3008,4.0,1.6394,True,tetragonal,4/mmm,129,22.0283,7.575,0.3814
Al5 Ce1 Ni2,3,0.0,0.0,0.0,0.0,0.0,0.125,0.0,0.0,0.125,0.25,2.75,0.79,0.2287,0.6,0.1936,5.0,1.6154,True,orthorhombic,mmm,71,16.6168,4.9018,0.6387
Na8 O16 Te4,3,0.0,0.2857,0.0,0.7143,0.0,0.0,0.1429,0.0,0.0,0.0,-1.1429,2.51,1.1095,1.2,0.5421,3.0,1.0302,True,orthorhombic,mmm,60,13.6541,4.1276,0.4279
Cd4 O14 Ta4,3,0.0,0.0,0.0,0.6364,0.0,0.0,0.0,0.0,0.0,0.3636,0.0,1.94,0.8894,0.95,0.434,4.0,1.7104,True,cubic,m-3m,227,13.2279,7.9738,1.0
B4 Ir10 Mg4 Si2,4,0.0,0.0,0.2,0.0,0.0,0.0,0.3,0.0,0.0,0.5,2.1,0.89,0.339,0.65,0.2274,4.0,1.7349,True,tetragonal,4/mmm,127,12.9297,13.6057,0.3095
Co6 Hf6 Sn6,3,0.0,0.0,0.0,0.0,0.0,0.0,0.0,0.0,0.0,0.6667,0.6667,0.66,0.2941,0.2,0.0816,2.0,0.8165,True,hexagonal,-6m2,190,17.4252,11.3126,0.9925
K2 Pr2 Te8,3,0.0,0.1667,0.0,0.6667,0.0,0.1667,0.6667,0.0,0.1667,0.0,-0.6667,1.28,0.5378,0.8,0.3115,4.0,1.2472,True,tetragonal,4/mmm,125,36.5447,5.2285,0.7723
Cu4 La4 S8,3,0.0,0.0,0.0,0.0,0.0,0.25,0.0,0.0,0.25,0.5,0.25,1.48,0.6096,0.95,0.3881,5.0,2.0616,True,monoclinic,2/m,14,20.7861,5.3241,0.9027
Eu2 Si2 Zn2,3,0.0,0.0,0.0,0.0,0.0,0.3333,0.3333,0.0,0.3333,0.3333,0.0,1.9,0.8429,0.75,0.3118,5.0,2.1602,True,hexagonal,6/mmm,194,21.8345,6.2225,0.5068
Ag6 Cs2 Se4,3,0.0,0.1667,0.0,0.3333,0.0,0.0,0.0,0.0,0.0,0.5,0.0,1.76,0.5869,1.45,0.4836,2.0,0.6872,True,monoclinic,2/m,12,27.3684,6.2133,0.4799
Ni2 O8 P2,3,0.0,0.0,0.0,0.6667,0.0,0.0,0.0,0.0,0.0,0.1667,-1.5,1.53,0.6602,0.75,0.2893,2.0,0.7638,True,orthorhombic,mmm,63,11.1056,3.8294,0.7432
Ca8 S20 Sb8,3,0.0,0.0,0.2222,0.0,0.0,0.0,0.2222,0.0,0.0,0.0,-1.3333,1.58,0.6303,0.8,0.3318,2.0,0.8165,True,monoclinic,2/m,14,25.908,3.4468,0.3773
C4 Ca16 N16,3,0.0,0.0,0.4444,0.0,0.0,0.0,0.0,0.0,0.0,0.0,-0.8889,2.04,0.976,1.15,0.5667,2.0,0.9938,True,orthorhombic,mmm,62,15.9918,2.6346,0.2544
Bi1 Ce2 O2,3,0.0,0.0,0.0,0.4,0.0,0.4,0.0,0.0,0.4,0.0,1.0,2.32,1.0427,1.25,0.5788,6.0,2.7129,True,tetragonal,4/mmm,139,21.2174,8.1583,0.5666
Mo4 O28 P8,3,0.0,0.0,0.0,0.7,0.0,0.0,0.0,0.0,0.0,0.1,-1.6,1.28,0.5775,0.85,0.2775,3.0,0.922,True,monoclinic,2/m,14,13.6474,3.2838,0.7222
F4 O4 Yb4,3,0.0,0.0,0.0,0.3333,0.3333,0.3333,0.0,0.0,0.3333,0.0,0.0,3.98,1.7628,1.25,0.5672,6.0,2.8284,True,monoclinic,2/m,14,12.6909,9.0735,0.8803
Ag1 Pr5 Se8,3,0.0,0.0,0.0,0.5714,0.0,0.3571,0.0,0.0,0.3571,0.0714,0.0,1.42,0.666,0.7,0.3315,4.0,1.8803,True,tetragonal,-4,82,26.0544,6.5741,1.0
Bi8 O20 Se4,3,0.0,0.0,0.0,0.75,0.0,0.0,0.0,0.0,0.0,0.0,-0.75,1.42,0.6211,1.0,0.4315,4.0,1.7139,True,orthorhombic,mm2,39,16.8013,7.1274,0.4796
Al2 Th2,2,0.5,0.0,0.0,0.0,0.0,0.0,0.0,0.0,0.5,0.0,3.5,0.31,0.155,0.55,0.275,6.0,3.0,True,orthorhombic,mmm,63,26.7363,8.0436,0.6808
Hg2 Nd1,2,0.0,0.0,0.0,0.0,0.0,0.3333,0.0,0.0,0.3333,0.6667,1.6667,0.86,0.4054,0.35,0.165,2.0,0.9428,True,trigonal,-3m,164,26.0046,11.6094,1.4429
Ba10 N12 Ti4,3,0.0,0.0,0.3846,0.0,0.0,0.0,0.0,0.0,0.0,0.1538,0.0,2.15,1.0027,1.5,0.6875,4.0,1.8333,True,triclinic,-1,2,20.8031,5.3199,0.666
Bi4 O8,2,0.0,0.0,0.0,0.6667,0.0,0.0,0.0,0.0,0.0,0.0,-0.3333,1.42,0.6694,1.0,0.4714,4.0,1.8856,True,orthorhombic,mmm,72,17.7024,7.5348,1.0
Dy4 Li4 O8,3,0.0,0.25,0.0,0.5,0.0,0.25,0.0,0.0,0.25,0.0,0.0,2.46,1.1731,1.15,0.5111,6.0,2.5981,True,monoclinic,2/m,14,13.2978,6.2886,0.9687
Fe2 Si2 Y1,3,0.0,0.0,0.0,0.0,0.0,0.0,0.4,0.0,0.0,0.6,-0.2,0.68,0.2599,0.7,0.2577,2.0,0.7483,True,tetragonal,4/mmm,139,15.0051,5.683,0.7175
H6 Y2,2,0.0,0.0,0.0,0.0,0.0,0.0,0.0,0.0,0.0,0.25,0.0,0.98,0.4244,1.55,0.6712,4.0,1.7321,True,hexagonal,6/mmm,194,8.6793,4.397,0.5898
Al1 Na1 O2,3,0.0,0.25,0.0,0.5,0.0,0.0,0.0,0.0,0.0,0.0,0.0,2.51,1.1113,1.2,0.5017,1.0,0.5,True,trigonal,-3m,166,9.7637,3.4852,1.0
F8 N8 S8,3,0.0,0.0,0.0,0.0,0.3333,0.0,0.0,0.0,0.0,0.0,-2.0,1.4,0.5826,0.5,0.2095,1.0,0.4714,True,tetragonal,-42m,114,17.4617,2.0626,0.4714
Ba4 Se8 Si2,3,0.0,0.0,0.2857,0.5714,0.0,0.0,0.1429,0.0,0.0,0.0,-1.1429,1.66,0.7253,1.05,0.4566,3.0,1.0498,True,monoclinic,2/m,11,31.7688,4.619,0.7599
F6 H8 N2 Sn1,4,0.0,0.0,0.0,0.0,0.3529,0.0,0.0,0.0,0.0,0.0,-1.4118,2.02,0.8345,1.2,0.2884,4.0,0.9558,True,trigonal,-3m,164,9.7454,2.694,1.2987
Rh8 Si4,2,0.0,0.0,0.0,0.0,0.0,0.0,0.3333,0.0,0.0,0.6667,0.6667,0.38,0.1791,0.25,0.1179,2.0,0.9428,True,orthorhombic,mmm,62,13.5712,9.5396,0.5335
In4 Pd2 Yb2,3,0.0,0.0,0.0,0.0,0.0,0.25,0.0,0.0,0.25,0.25,2.75,2.2,0.8489,0.35,0.1244,3.0,1.299,True,orthorhombic,mmm,63,22.8735,9.2397,0.5637
Cl8 O2 Rb12,3,0.0,0.5455,0.0,0.0909,0.3636,0.0,0.0,0.0,0.0,0.0,0.0,2.62,1.1954,1.75,0.7202,3.0,1.1282,True,trigonal,-3m,167,35.152,2.8799,1.0
Au2 Cl14 Te2,3,0.0,0.0,0.0,0.1111,0.7778,0.0,0.1111,0.0,0.0,0.1111,-0.6667,1.06,0.3643,0.4,0.1563,3.0,1.0657,True,triclinic,-1,2,34.5281,3.0605,0.837
Co4 Ga2 Pr2,3,0.0,0.0,0.0,0.0,0.0,0.25,0.0,0.0,0.25,0.5,2.5,0.75,0.316,0.55,0.2247,4.0,1.7321,True,orthorhombic,mmm,51,17.1205,7.9653,0.5377
Cr4 Mg2 O8,3,0.0,0.0,0.1429,0.5714,0.0,0.0,0.0,0.0,0.0,0.2857,0.0,2.13,0.9448,0.9,0.4135,2.0,0.8806,True,orthorhombic,mmm,74,10.8868,4.1901,0.9883
S8 Sm6,2,0.0,0.0,0.0,0.0,0.0,0.4286,0.0,0.0,0.4286,0.0,0.1429,1.41,0.6978,0.85,0.4206,5.0,2.4744,True,cubic,-43m,220,21.7643,6.3145,1.0
Au1 Gd1 Sn1,3,0.0,0.0,0.0,0.0,0.0,0.3333,0.0,0.0,0.3333,0.3333,0.6667,1.34,0.5487,0.45,0.1929,3.0,1.2472,True,cubic,-43m,216,26.2454,9.974,1.0
Cr1 Nb2 Se4,3,0.0,0.0,0.0,0.5714,0.0,0.0,0.0,0.0,0.0,0.4286,0.7143,0.95,0.4606,0.3,0.1411,1.0,0.4518,True,monoclinic,2/m,12,19.9385,6.5871,0.4991
C2 Er1 Ni1,3,0.0,0.0,0.0,0.0,0.0,0.25,0.0,0.0,0.25,0.25,-0.75,1.31,0.542,1.05,0.4479,6.0,2.4495,True,orthorhombic,mm2,38,11.9113,8.7121,0.9449
Ga2 Nd6 O12,3,0.0,0.0,0.0,0.6,0.0,0.3,0.0,0.0,0.3,0.0,0.0,2.3,1.0607,1.25,0.5654,6.0,2.6833,True,orthorhombic,mm2,36,15.2124,6.5325,0.7574
Au2 Zr6,2,0.0,0.0,0.0,0.0,0.0,0.0,0.0,0.0,0.0,1.0,3.75,1.21,0.5239,0.2,0.0866,1.0,0.433,True,cubic,m-3m,223,21.2314,9.2023,1.0
C2 Ir1 U2,3,0.4,0.0,0.0,0.0,0.0,0.0,0.0,0.0,0.4,0.2,1.4,1.17,0.5316,1.05,0.4722,7.0,3.1369,True,tetragonal,4/mmm,139,15.1024,15.2239,0.5181
B6 O18 Tm6,3,0.0,0.0,0.0,0.6,0.0,0.2,0.2,0.0,0.2,0.0,0.0,2.19,0.9142,1.15,0.4456,6.0,2.4,True,hexagonal,-6m2,188,10.8029,7.0014,0.7556
Ge8 K8 O40 Sb8,4,0.0,0.125,0.0,0.625,0.0,0.0,0.25,0.0,0.0,0.0,-2.0,2.62,0.9449,1.6,0.5594,3.0,1.1659,True,orthorhombic,mm2,33,15.4429,4.2137,0.4979
B16 Er8 O48 Sr12,4,0.0,0.0,0.1429,0.5714,0.0,0.0952,0.1905,0.0,0.0952,0.0,0.0,2.49,1.0139,1.4,0.5388,6.0,1.9272,True,orthorhombic,mm2,33,12.4564,5.2855,0.4533
Bi4 Cl16 Te14,3,0.0,0.0,0.0,0.4118,0.4706,0.0,0.4118,0.0,0.0,0.0,-0.9412,1.14,0.5385,0.6,0.2299,3.0,1.1497,True,triclinic,-1,2,33.1664,4.6968,0.3608
Pd3 Tl3 Yb3,3,0.0,0.0,0.0,0.0,0.0,0.3333,0.0,0.0,0.3333,0.3333,2.0,2.2,0.931,0.5,0.2095,3.0,1.2472,True,hexagonal,-6m2,189,23.1281,11.5796,1.9434
Nd2 O3,2,0.0,0.0,0.0,0.6,0.0,0.4,0.0,0.0,0.4,0.0,0.0,2.3,1.1268,1.25,0.6124,6.0,2.9394,True,hexagonal,-6m2,189,21.1807,5.2759,1.9164
Er8 O16 Se4 Si4,4,0.0,0.0,0.0,0.625,0.0,0.25,0.125,0.0,0.25,0.0,-1.0,2.2,0.9363,1.15,0.4736,6.0,2.4717,True,orthorhombic,mmm,57,14.048,7.47,0.558
Cd2 Na14 O9,3,0.0,0.56,0.0,0.36,0.0,0.0,0.0,0.0,0.0,0.08,0.0,2.51,1.1765,1.2,0.5649,3.0,0.8,True,trigonal,-3,147,15.4748,2.9645,0.7194
Bi12 O20 Ti1,3,0.0,0.0,0.0,0.6061,0.0,0.0,0.0,0.0,0.0,0.0303,-0.0,1.9,0.7164,1.0,0.4823,4.0,1.9089,True,cubic,23,197,16.6508,8.6902,1.0
Hg20 I24 Sb8,3,0.0,0.0,0.0,0.0,0.4615,0.0,0.1538,0.0,0.0,0.3846,-0.5385,0.66,0.3223,0.1,0.0458,1.0,0.4865,True,orthorhombic,mm2,33,40.0646,6.4016,0.3851
H4 I4 O14 Sr2,4,0.0,0.0,0.0833,0.5833,0.1667,0.0,0.0,0.0,0.0,0.0,-1.3333,2.49,0.7604,1.75,0.5037,4.0,1.441,True,monoclinic,2/m,15,14.6548,4.3005,1.028
Al42 Pd16,2,0.0,0.0,0.0,0.0,0.0,0.0,0.0,0.0,0.0,0.2759,2.7241,0.59,0.2637,0.15,0.067,2.0,0.8939,True,tetragonal,4/m,88,15.8919,5.1091,1.0
C6 Fe1 N6 Pb2,4,0.0,0.0,0.0,0.0,0.0,0.0,0.0,0.0,0.0,0.0667,-2.4,1.21,0.3507,1.15,0.4061,4.0,1.3984,True,trigonal,-3,147,17.1288,4.0481,1.2296
As32 Sr32 Ti8,3,0.0,0.0,0.4444,0.0,0.0,0.0,0.4444,0.0,0.0,0.1111,0.0,1.23,0.5799,0.85,0.4045,1.0,0.4969,True,cubic,-43m,218,30.4067,4.2356,1.0
Er1 Pd3,2,0.0,0.0,0.0,0.0,0.0,0.25,0.0,0.0,0.25,0.75,2.25,0.96,0.4157,0.35,0.1516,3.0,1.299,True,cubic,m-3m,221,17.3539,11.6383,1.0
Ga4 Pd7 Zn3,3,0.0,0.0,0.0,0.0,0.0,0.0,0.0,0.0,0.0,0.7143,2.2857,0.55,0.236,0.1,0.043,1.0,0.5,True,trigonal,3,146,14.9815,9.6593,1.0
Ag1 F12 Ta2,3,0.0,0.0,0.0,0.0,0.8,0.0,0.0,0.0,0.0,0.2,-0.0667,2.48,0.9391,1.1,0.4012,4.0,1.4817,True,triclinic,-1,2,16.5417,4.6695,0.5756
Cd8 K8 O48 S12,4,0.0,0.1053,0.0,0.6316,0.0,0.0,0.0,0.0,0.0,0.1053,-1.2632,2.62,0.8982,1.6,0.529,3.0,1.0287,True,orthorhombic,222,19,14.9142,3.4645,0.9937
Cu3 Ge4 Na2 O12,4,0.0,0.0952,0.0,0.5714,0.0,0.0,0.1905,0.0,0.0,0.1429,-1.5238,2.51,0.8907,1.2,0.4228,2.0,0.9209,True,triclinic,-1,2,13.1018,4.3404,0.715
Ba2 Co2 O14 P4,4,0.0,0.0,0.0909,0.6364,0.0,0.0,0.0,0.0,0.0,0.0909,-1.4545,2.55,0.8575,1.55,0.4682,4.0,1.2129,True,triclinic,-1,2,13.7456,4.0657,0.6994
Cr6 Li12 O24,3,0.0,0.2857,0.0,0.5714,0.0,0.0,0.0,0.0,0.0,0.1429,-0.4286,2.46,1.125,0.85,0.4127,2.0,0.6999,True,trigonal,-3,148,13.2331,2.3282,1.0
Mn8 Zr4,2,0.0,0.0,0.0,0.0,0.0,0.0,0.0,0.0,0.0,1.0,2.6667,0.22,0.1037,0.15,0.0707,1.0,0.4714,True,hexagonal,6/mmm,194,14.4847,7.6848,0.5977
Al6 Pd10,2,0.0,0.0,0.0,0.0,0.0,0.0,0.0,0.0,0.0,0.625,2.375,0.59,0.2856,0.15,0.0726,2.0,0.9682,True,orthorhombic,mmm,55,14.7184,8.6455,0.3845
Ga20 Li4 O32,3,0.0,0.0714,0.0,0.5714,0.0,0.0,0.0,0.0,0.0,0.0,0.0,2.46,0.8982,0.85,0.3606,2.0,0.9583,True,cubic,432,212,10.2939,5.5716,1.0
Dy4 O32 Rb4 S8,4,0.0,0.0833,0.0,0.6667,0.0,0.0833,0.0,0.0,0.0833,0.0,-1.3333,2.62,0.8984,1.75,0.545,6.0,1.754,True,orthorhombic,mmm,52,14.4787,4.2061,0.3946
Au2 Sn2,2,0.0,0.0,0.0,0.0,0.0,0.0,0.0,0.0,0.0,0.5,-0.5,0.58,0.29,0.1,0.05,1.0,0.5,True,hexagonal,6/mmm,194,23.947,10.9449,0.7801
Al2 Cu2 Te4,3,0.0,0.0,0.0,0.5,0.0,0.0,0.5,0.0,0.0,0.25,0.25,0.49,0.2007,0.15,0.0612,2.0,0.8292,True,tetragonal,-42m,122,27.9812,5.1293,0.8199
Nd6 O16 Se4 Ti6,4,0.0,0.0,0.0,0.625,0.0,0.1875,0.0,0.0,0.1875,0.1875,0.0625,2.3,0.9798,1.25,0.4954,6.0,2.222,True,monoclinic,2/m,11,15.5614,5.7506,0.2899
Lu4 O12 Pr4,3,0.0,0.0,0.0,0.6,0.0,0.4,0.0,0.0,0.4,0.0,0.0,2.31,1.0983,1.25,0.5887,6.0,2.5298,True,orthorhombic,mmm,62,14.497,8.3358,0.6903
Cd2 O7 V2,3,0.0,0.0,0.0,0.6364,0.0,0.0,0.0,0.0,0.0,0.3636,0.0,1.81,0.8565,0.95,0.4133,3.0,1.2398,True,monoclinic,2/m,12,14.8897,4.4477,0.8735
Ir4 Si4 Sm6,3,0.0,0.0,0.0,0.0,0.0,0.4286,0.2857,0.0,0.4286,0.2857,1.0,1.03,0.45,0.75,0.3234,5.0,2.0702,True,orthorhombic,mmm,63,21.0935,10.028,0.3081
La2 Mg4 Ni2,3,0.0,0.0,0.5,0.0,0.0,0.25,0.0,0.0,0.25,0.5,2.25,0.81,0.3025,0.6,0.225,5.0,2.0616,True,orthorhombic,mmm,63,22.398,4.5634,0.4989
C2 H2 K2 O6,4,0.0,0.1667,0.0,0.5,0.0,0.0,0.0,0.0,0.0,0.0,-1.6667,2.62,0.9516,1.95,0.631,3.0,0.8975,True,triclinic,-1,2,13.0294,2.1265,0.629
F20 U4,2,0.1667,0.0,0.0,0.0,0.8333,0.0,0.0,0.0,0.1667,0.0,0.1667,2.6,0.969,1.25,0.4658,7.0,2.6087,True,tetragonal,-42m,122,17.0874,5.3938,0.6831
O24 Tm16,2,0.0,0.0,0.0,0.6,0.0,0.4,0.0,0.0,0.4,0.0,0.0,2.19,1.0729,1.15,0.5634,6.0,2.9394,True,cubic,m-3,206,14.3685,8.9187,1.0
Co1 H1 O2,3,0.0,0.0,0.0,0.5,0.0,0.0,0.0,0.0,0.0,0.25,-0.75,1.56,0.7091,1.1,0.4016,3.0,1.0897,True,trigonal,-3m,166,7.8203,4.8806,1.0
Li1 Mg1 P1,3,0.0,0.3333,0.3333,0.0,0.0,0.0,0.0,0.0,0.0,0.0,0.0,1.21,0.5107,0.5,0.2248,1.0,0.4714,True,cubic,-43m,216,16.0423,2.1468,1.0
Ba2 Cu1 O3,3,0.0,0.0,0.3333,0.5,0.0,0.0,0.0,0.0,0.0,0.1667,-0.0,2.55,1.1567,1.55,0.6949,4.0,1.7951,True,orthorhombic,mmm,71,17.6696,6.049,0.537
Al4 Be1 Br2 Na8 O24 Si7,6,0.0,0.1739,0.0217,0.5217,0.0435,0.0,0.1522,0.0,0.0,0.0,-1.2174,2.51,1.0193,1.2,0.4496,2.0,0.5805,True,monoclinic,2,3,16.1635,2.3255,1.7353
C1 Re1,2,0.0,0.0,0.0,0.0,0.0,0.0,0.0,0.0,0.0,0.5,0.0,0.65,0.325,0.65,0.325,4.0,2.0,True,cubic,m-3m,225,10.3785,15.8573,1.0
Mg3 Pr1,2,0.0,0.0,0.75,0.0,0.0,0.25,0.0,0.0,0.25,0.0,2.25,0.18,0.0779,0.35,0.1516,5.0,2.1651,True,cubic,m-3m,225,25.8056,3.4398,1.0
Ba2 Mg2 Si2,3,0.0,0.0,0.6667,0.0,0.0,0.0,0.3333,0.0,0.0,0.0,0.0,1.01,0.4143,1.05,0.4327,3.0,1.4142,True,tetragonal,4/mmm,129,28.6245,3.6686,0.5888
Sb24 Sr16,2,0.0,0.0,0.4,0.0,0.0,0.0,0.6,0.0,0.0,0.0,-1.0,1.1,0.5389,0.55,0.2694,0.0,0.0,True,monoclinic,2/m,14,33.9115,5.2935,0.4391
Hg1 K4 P2,3,0.0,0.5714,0.0,0.0,0.0,0.0,0.0,0.0,0.0,0.1429,-0.1429,1.37,0.6493,1.2,0.5341,3.0,0.9258,True,trigonal,-3m,166,36.6953,2.7082,1.0
Cl16 Lu4 Na4,3,0.0,0.1667,0.0,0.0,0.6667,0.1667,0.0,0.0,0.1667,0.0,0.0,2.23,0.976,0.8,0.3656,3.0,1.118,True,orthorhombic,mmm,60,28.1252,3.3434,0.3949