formula,numberOfSpecies,fracActinoid,fracAlkali,fracAlkaline,fracChalcogen,fracHalogen,fracLanthanoid,fracMetalloid,fracNobleGas,fracRareEarth,fracTransitionMetal,electronsPerAtom,electronegativityRange,electronegativityStd,radiiRange,radiiStd,rowRange,rowStd,ordered,crystalSystem,pointGroup,spaceGroupNumber,volumePerSite,density,c_a
Gd4 Ge4 Zn4,3,0.0,0.0,0.0,0.0,0.0,0.3333,0.3333,0.0,0.3333,0.3333,0.3333,0.81,0.3314,0.55,0.2392,4.0,1.8856,True,hexagonal,6/mmm,194,21.0145,7.778,0.2676
F8 H40 N16,3,0.0,0.0,0.0,0.0,0.125,0.0,0.0,0.0,0.0,0.0,-1.5,1.78,0.6208,0.4,0.1749,1.0,0.4841,True,orthorhombic,222,19,7.3768,1.4646,0.3809
As12 Ge4 Na20,3,0.0,0.5556,0.0,0.0,0.0,0.0,0.4444,0.0,0.0,0.0,-0.8889,1.25,0.602,0.65,0.3119,1.0,0.4969,True,monoclinic,2/m,14,24.1357,3.1522,0.5617
Be4 Ge2 O14 Pr4,4,0.0,0.0,0.1667,0.5833,0.0,0.1667,0.0833,0.0,0.1667,0.0,-0.6667,2.31,0.9884,1.25,0.4642,6.0,2.2298,True,tetragonal,-42m,113,12.161,5.5128,0.6459
Gd2 O12 Rh2 Sr6,4,0.0,0.0,0.2727,0.5455,0.0,0.0909,0.0,0.0,0.0909,0.0909,0.0,2.49,1.1371,1.4,0.6356,6.0,1.9667,True,trigonal,-3m,167,14.7981,6.3147,1.0
Ba3 Mg1 Nb2 O9,4,0.0,0.0,0.2667,0.6,0.0,0.0,0.0,0.0,0.0,0.1333,0.0,2.55,1.1177,1.55,0.6303,4.0,1.6918,True,trigonal,-3m,164,14.2755,5.9409,0.8148
B6 Co4 O13,3,0.0,0.0,0.0,0.5652,0.0,0.0,0.2609,0.0,0.0,0.1739,0.0,1.56,0.7276,0.75,0.2754,2.0,0.7581,True,cubic,-43m,217,9.3438,3.9298,1.0
Li4 O4,2,0.0,0.5,0.0,0.5,0.0,0.0,0.0,0.0,0.0,0.0,-0.5,2.46,1.23,0.85,0.425,0.0,0.0,True,hexagonal,6/mmm,194,8.435,2.2581,0.4128
Cu1 In1 O2,3,0.0,0.0,0.0,0.5,0.0,0.0,0.0,0.0,0.0,0.25,0.25,1.66,0.8011,0.95,0.4308,3.0,1.299,True,trigonal,-3m,166,14.2199,6.1413,1.0
Cl104 P8 Ti16,3,0.0,0.0,0.0,0.0,0.8125,0.0,0.0,0.0,0.0,0.125,-0.5,1.62,0.5636,0.4,0.1323,1.0,0.3307,True,orthorhombic,mmm,62,31.8431,1.9151,0.3693
Ba2 O18 Si6 Ti2,4,0.0,0.0,0.0714,0.6429,0.0,0.0,0.2143,0.0,0.0,0.0714,-1.7143,2.55,0.9004,1.55,0.4419,4.0,1.1089,True,hexagonal,-6m2,188,13.8447,3.542,0.6792
C1 Fe3 Zn1,3,0.0,0.0,0.0,0.0,0.0,0.0,0.0,0.0,0.0,0.8,0.8,0.9,0.3138,0.7,0.2757,2.0,0.8,True,cubic,m-3m,221,10.7412,7.5738,1.0
Cl20 P4,2,0.0,0.0,0.0,0.0,0.8333,0.0,0.0,0.0,0.0,0.0,-1.3333,0.97,0.3615,0.0,0.0,0.0,0.0,True,tetragonal,4/m,85,30.1001,1.9147,0.7792
B10 Ba4 Li2 O20,4,0.0,0.0556,0.1111,0.5556,0.0,0.0,0.2778,0.0,0.0,0.0,0.0,2.55,0.9741,1.55,0.4909,4.0,1.2571,True,monoclinic,2/m,11,12.1262,3.7707,0.3004
Ag4 As4 F28,3,0.0,0.0,0.0,0.0,0.7778,0.0,0.1111,0.0,0.0,0.1111,-1.0,2.05,0.8025,1.1,0.3789,3.0,1.0657,True,orthorhombic,mmm,62,15.7703,3.6945,0.7212
Ba2 Mn2 Sb4,3,0.0,0.0,0.25,0.0,0.0,0.0,0.5,0.0,0.0,0.25,-0.5,1.16,0.4761,0.75,0.311,2.0,0.7071,True,tetragonal,4/mmm,139,31.0916,5.8186,0.3517
Pb8 S26 Sb12,3,0.0,0.0,0.0,0.0,0.0,0.0,0.2609,0.0,0.0,0.0,-1.5652,0.53,0.2261,0.8,0.3136,3.0,1.2328,True,triclinic,1,1,25.9503,5.4981,0.2203
Sb2 Sr1 Zn2,3,0.0,0.0,0.2,0.0,0.0,0.0,0.4,0.0,0.0,0.4,-0.0,1.1,0.402,0.65,0.2441,1.0,0.4899,True,trigonal,-3m,164,28.0252,5.4743,0.588
F8 Se12 Sn4 Sr8,4,0.0,0.0,0.25,0.375,0.25,0.0,0.0,0.0,0.0,0.0,-1.0,3.03,1.0868,1.5,0.5384,3.0,1.1659,True,orthorhombic,mmm,62,23.6725,4.9876,0.3138
Dy3 Ga2 Mn3 Si1,4,0.0,0.0,0.0,0.0,0.0,0.3333,0.1111,0.0,0.3333,0.3333,1.8889,0.68,0.2545,0.65,0.2221,5.0,1.9876,True,hexagonal,-6m2,189,19.1005,7.9194,1.8182
H8 O16 W4,3,0.0,0.0,0.0,0.5714,0.0,0.0,0.0,0.0,0.0,0.1429,-0.8571,1.24,0.5893,1.1,0.3396,5.0,1.5779,True,orthorhombic,mmm,62,11.2206,5.2823,0.4779
Cd6 Gd2,2,0.0,0.0,0.0,0.0,0.0,0.25,0.0,0.0,0.25,0.75,2.25,0.49,0.2122,0.25,0.1083,3.0,1.299,True,hexagonal,6/mmm,194,24.1021,8.517,1.3321
Rh3 U1,2,0.25,0.0,0.0,0.0,0.0,0.0,0.0,0.0,0.25,0.75,3.75,0.9,0.3897,0.4,0.1732,4.0,1.7321,True,cubic,m-3m,221,16.3222,13.9058,1.0
Ag2 Ca4 Si6,3,0.0,0.0,0.3333,0.0,0.0,0.0,0.5,0.0,0.0,0.1667,-1.1667,0.93,0.4279,0.7,0.3236,2.0,0.7454,True,orthorhombic,mmm,69,21.7745,3.4607,0.722
In4 Li4 Se8,3,0.0,0.25,0.0,0.5,0.0,0.0,0.0,0.0,0.0,0.0,0.0,1.57,0.6498,0.4,0.1785,3.0,1.0897,True,orthorhombic,mm2,33,27.2992,4.253,0.8096
As4 Rb4 Si2,3,0.0,0.4,0.0,0.0,0.0,0.0,0.6,0.0,0.0,0.0,-1.6,1.36,0.6289,1.25,0.5963,2.0,0.7483,True,orthorhombic,mmm,72,33.6162,3.4466,0.7578
H2 Zr1,2,0.0,0.0,0.0,0.0,0.0,0.0,0.0,0.0,0.0,0.3333,0.6667,0.87,0.4101,1.3,0.6128,4.0,1.8856,True,cubic,m-3m,225,9.3227,5.5359,1.0
F12 Na4 Sn2,3,0.0,0.2222,0.0,0.0,0.6667,0.0,0.0,0.0,0.0,0.0,-0.8889,3.05,1.3064,1.3,0.5659,3.0,0.9558,True,tetragonal,4/mmm,136,15.1888,3.3852,0.5016
Ga8 Li24 N16,3,0.0,0.5,0.0,0.0,0.0,0.0,0.0,0.0,0.0,0.0,0.0,2.06,0.9213,0.8,0.3633,2.0,0.7454,True,cubic,m-3,206,9.4349,3.4777,1.0
Na2 O13 W4,3,0.0,0.1053,0.0,0.6842,0.0,0.0,0.0,0.0,0.0,0.2105,-0.4211,2.51,0.8167,1.2,0.435,4.0,1.605,True,triclinic,-1,2,14.5857,5.928,0.4429
Ge24 O56 Pb8,3,0.0,0.0,0.0,0.6364,0.0,0.0,0.2727,0.0,0.0,0.0,-2.1818,1.43,0.6548,1.2,0.4051,4.0,1.3111,True,orthorhombic,mmm,61,14.2689,5.6824,0.3267
C4 H16 N8 S4,4,0.0,0.0,0.0,0.0,0.0,0.0,0.0,0.0,0.0,0.0,-2.0,0.84,0.345,0.75,0.2704,2.0,0.696,True,monoclinic,2/m,14,12.7442,1.2398,0.3218
La2 Os4,2,0.0,0.0,0.0,0.0,0.0,0.3333,0.0,0.0,0.3333,1.0,3.6667,1.1,0.5185,0.65,0.3064,2.0,0.9428,True,cubic,m-3m,227,19.4649,14.7689,1.0
Br8 Ge38 P8,3,0.0,0.0,0.0,0.0,0.1481,0.0,0.7037,0.0,0.0,0.0,-3.4074,0.95,0.3324,0.25,0.0897,1.0,0.3552,True,cubic,-43m,218,21.8896,5.1238,1.0
Eu3 Li6 O12 Si3,4,0.0,0.25,0.0,0.5,0.0,0.125,0.125,0.0,0.125,0.0,-1.0,3.44,1.3256,1.25,0.4703,6.0,1.9645,True,trigonal,32,152,11.6405,4.5992,0.4041
As24 Ba4 Co40,3,0.0,0.0,0.0588,0.0,0.0,0.0,0.3529,0.0,0.0,0.5882,0.2353,1.29,0.2952,1.0,0.2263,2.0,0.4706,True,orthorhombic,mmm,62,14.6484,7.8431,0.4149
B8 Mg2 Os6,3,0.0,0.0,0.125,0.0,0.0,0.0,0.5,0.0,0.0,0.375,3.25,0.89,0.2743,0.65,0.2574,4.0,1.8666,True,orthorhombic,mmm,63,10.6684,12.4177,0.2979
B4 Os2,2,0.0,0.0,0.0,0.0,0.0,0.0,0.6667,0.0,0.0,0.3333,3.3333,0.16,0.0754,0.45,0.2121,4.0,1.8856,True,orthorhombic,mmm,59,9.2713,12.648,0.6131
Mn4 O12 Pr4,3,0.0,0.0,0.0,0.6,0.0,0.2,0.0,0.0,0.2,0.2,-0.2,2.31,1.0373,1.25,0.5219,6.0,2.3324,True,orthorhombic,mmm,62,12.5908,6.4319,0.7155
F2 O2 Y2,3,0.0,0.0,0.0,0.3333,0.3333,0.0,0.0,0.0,0.0,0.3333,0.0,2.76,1.1943,1.3,0.5907,3.0,1.4142,True,tetragonal,4/mmm,129,13.8219,4.9619,0.7022
Fe6 Sn4,2,0.0,0.0,0.0,0.0,0.0,0.0,0.0,0.0,0.0,0.6,-0.4,0.13,0.0637,0.05,0.0245,1.0,0.4899,True,trigonal,-3m,166,16.2393,8.2817,1.0
Fe4 Rb2 S6,3,0.0,0.1667,0.0,0.0,0.0,0.0,0.0,0.0,0.0,0.3333,-0.1667,1.76,0.6392,1.35,0.4782,2.0,0.7454,True,orthorhombic,mmm,63,22.7309,3.5717,0.7008
Mg4 O16 Sb8,3,0.0,0.0,0.1429,0.5714,0.0,0.0,0.2857,0.0,0.0,0.0,-1.7143,2.13,0.8415,0.9,0.4292,3.0,1.3093,True,tetragonal,4/mmm,135,16.0152,4.915,1.4142
Au1 Ce1 Ge1,3,0.0,0.0,0.0,0.0,0.0,0.3333,0.3333,0.0,0.3333,0.3333,0.6667,1.42,0.5859,0.6,0.2625,4.0,1.633,True,cubic,-43m,216,25.1713,9.0097,1.0
O16 P4 Zn6,3,0.0,0.0,0.0,0.6154,0.0,0.0,0.0,0.0,0.0,0.2308,-1.2308,1.79,0.7831,0.75,0.3152,2.0,0.8356,True,monoclinic,2/m,14,12.8922,3.8261,0.5909
Si4 U6,2,0.6,0.0,0.0,0.0,0.0,0.0,0.4,0.0,0.6,0.0,2.0,0.52,0.2547,0.65,0.3184,6.0,2.9394,True,tetragonal,4/mmm,127,20.4631,12.501,0.5394
Hf20 Si16,2,0.0,0.0,0.0,0.0,0.0,0.0,0.4444,0.0,0.0,0.5556,0.4444,0.6,0.2981,0.45,0.2236,3.0,1.4907,True,tetragonal,422,92,17.8983,10.3579,0.549
C6 Co1 Fe1 K2 N6,5,0.0,0.125,0.0,0.0,0.0,0.0,0.0,0.0,0.0,0.125,-2.25,2.22,0.7144,1.55,0.5245,2.0,0.866,True,cubic,m-3m,225,15.9938,2.2652,1.0
Al4 Pt4,2,0.0,0.0,0.0,0.0,0.0,0.0,0.0,0.0,0.0,0.5,2.5,0.67,0.335,0.1,0.05,3.0,1.5,True,cubic,23,198,14.8638,12.4043,1.0
Cd1 Cl4 Rb2,3,0.0,0.2857,0.0,0.0,0.5714,0.0,0.0,0.0,0.0,0.1429,0.0,2.34,1.0494,1.35,0.5902,2.0,0.9897,True,tetragonal,4/mmm,139,32.8974,3.0658,0.5888
Br4 Na4 O12,3,0.0,0.2,0.0,0.6,0.2,0.0,0.0,0.0,0.0,0.0,-1.2,2.51,0.9739,1.2,0.4754,2.0,0.8,True,cubic,23,198,15.8607,3.1595,1.0
Li6 Mo6 O32 P8,4,0.0,0.1154,0.0,0.6154,0.0,0.0,0.0,0.0,0.0,0.1154,-1.1154,2.46,0.8594,0.85,0.3535,3.0,0.9707,True,monoclinic,2,4,13.0761,3.363,0.7558
Ca2 Fe6 O10,3,0.0,0.0,0.1111,0.5556,0.0,0.0,0.0,0.0,0.0,0.3333,-0.2222,2.44,0.9344,1.2,0.4619,2.0,0.9938,True,orthorhombic,mmm,63,11.1271,4.769,0.2396
Ge6 Mn6 Zr1,3,0.0,0.0,0.0,0.0,0.0,0.0,0.4615,0.0,0.0,0.5385,-0.6154,0.68,0.2514,0.3,0.0937,1.0,0.2665,True,hexagonal,6/mmm,191,14.255,7.6765,0.6309
I4 Nb8 Te24,3,0.0,0.0,0.0,0.6667,0.1111,0.0,0.6667,0.0,0.0,0.2222,-0.3333,1.06,0.2967,0.05,0.0208,0.0,0.0,True,monoclinic,2/m,14,33.6999,5.9037,0.6568
Ac16 S24,2,0.4,0.0,0.0,0.0,0.0,0.0,0.0,0.0,0.4,0.4,0.0,1.48,0.725,0.95,0.4654,6.0,2.9394,True,tetragonal,-42m,122,27.8805,6.5538,2.5931
B6 In2 Ni21,3,0.0,0.0,0.0,0.0,0.0,0.0,0.2069,0.0,0.0,0.7241,2.2759,0.26,0.0659,0.7,0.2155,3.0,0.8818,True,cubic,m-3m,225,10.2086,8.5653,1.0
Ho1 N1,2,0.0,0.0,0.0,0.0,0.0,0.5,0.0,0.0,0.5,0.0,0.0,1.81,0.905,1.1,0.55,6.0,3.0,True,cubic,m-3m,225,14.5187,10.2327,1.0
K2 Sb4,2,0.0,0.3333,0.0,0.0,0.0,0.0,0.6667,0.0,0.0,0.0,-1.6667,1.23,0.5798,0.75,0.3536,1.0,0.4714,True,monoclinic,2/m,12,36.9839,4.2298,0.5735
Cd1 Lu1,2,0.0,0.0,0.0,0.0,0.0,0.5,0.0,0.0,0.5,0.5,2.5,0.42,0.21,0.2,0.1,1.0,0.5,True,cubic,m-3m,221,24.8226,9.6123,1.0
Se12 Yb8,2,0.0,0.0,0.0,0.6,0.0,0.4,0.0,0.0,0.4,0.0,0.0,2.55,1.2492,0.6,0.2939,4.0,1.9596,True,orthorhombic,mmm,70,29.4921,6.5647,0.4461
Al38 Co12 U4,3,0.0741,0.0,0.0,0.0,0.0,0.0,0.0,0.0,0.0741,0.2222,3.0,0.5,0.1352,0.5,0.1313,6.0,1.5635,True,monoclinic,2/m,12,15.4108,5.3569,0.7686
Cu2 S4 W1,3,0.0,0.0,0.0,0.0,0.0,0.0,0.0,0.0,0.0,0.4286,0.0,0.68,0.2968,0.35,0.1732,3.0,1.0302,True,tetragonal,-42m,111,24.232,4.2995,1.0446
Ir2 O12 Sr4 Y2,4,0.0,0.0,0.2,0.6,0.0,0.0,0.0,0.0,0.0,0.2,-0.2,2.49,1.0836,1.4,0.6055,4.0,1.6155,True,monoclinic,2/m,14,14.163,6.4761,0.7043
Ag2 Ba2 Te6 Y2,4,0.0,0.0,0.1667,0.5,0.0,0.0,0.5,0.0,0.0,0.3333,0.0,1.21,0.4858,0.75,0.2765,1.0,0.3727,True,orthorhombic,mmm,63,33.1383,5.9872,0.3935
O4 Si4 Sr12,3,0.0,0.0,0.6,0.2,0.0,0.0,0.2,0.0,0.0,0.0,-0.0,2.49,0.9732,1.4,0.5851,3.0,1.2649,True,orthorhombic,mmm,62,26.1658,3.8959,0.7092
Ge4 Rh8,2,0.0,0.0,0.0,0.0,0.0,0.0,0.3333,0.0,0.0,0.6667,0.6667,0.27,0.1273,0.1,0.0471,1.0,0.4714,True,orthorhombic,mmm,62,14.3694,10.726,0.5295
Cl16 N12 Sb4,3,0.0,0.0,0.0,0.0,0.5,0.0,0.125,0.0,0.0,0.0,-2.0,1.11,0.3545,0.8,0.2562,3.0,0.927,True,monoclinic,2/m,14,27.5481,2.3025,0.7987
Cr4 O16 V4,3,0.0,0.0,0.0,0.6667,0.0,0.0,0.0,0.0,0.0,0.3333,0.0,1.81,0.8462,0.8,0.3656,2.0,0.9428,True,monoclinic,2/m,12,12.4699,3.7049,0.9684
Cl11 Hg5 Tl1,3,0.0,0.0,0.0,0.0,0.6471,0.0,0.0,0.0,0.0,0.2941,-0.2941,1.54,0.5906,0.9,0.2849,3.0,1.4337,True,monoclinic,2/m,12,31.3698,4.9737,0.6855
Al16 Ba8 O32,3,0.0,0.0,0.1429,0.5714,0.0,0.0,0.0,0.0,0.0,0.0,0.0,2.55,1.0482,1.55,0.546,4.0,1.3553,True,hexagonal,622,182,15.4134,3.929,1.173
Cs2 Hg2 Se6 Y2,4,0.0,0.1667,0.0,0.5,0.0,0.0,0.0,0.0,0.0,0.3333,-0.1667,1.76,0.7025,1.45,0.5239,2.0,0.8975,True,orthorhombic,mmm,63,32.9681,5.5345,0.385
Bi6 O14 Sb2,3,0.0,0.0,0.0,0.6364,0.0,0.0,0.0909,0.0,0.0,0.0,-0.7273,1.42,0.6795,1.0,0.4647,4.0,1.8227,True,triclinic,-1,2,15.394,8.4402,0.869
Re8 Zr4,2,0.0,0.0,0.0,0.0,0.0,0.0,0.0,0.0,0.0,1.0,4.0,0.57,0.2687,0.2,0.0943,1.0,0.4714,True,hexagonal,6/mmm,194,17.6976,14.5008,0.6111
Nb10 O2 Pt6,3,0.0,0.0,0.0,0.1111,0.0,0.0,0.0,0.0,0.0,0.8889,3.2222,1.84,0.5869,0.85,0.2594,4.0,1.1547,True,hexagonal,6/mmm,193,15.8747,12.3871,1.5872
O1 Pb1 Sr3,3,0.0,0.0,0.6,0.2,0.0,0.0,0.0,0.0,0.0,0.0,1.2,2.49,1.0109,1.4,0.5455,4.0,1.3565,True,cubic,m-3m,221,28.3563,5.6927,1.0
Au4 Na4 Se8,3,0.0,0.25,0.0,0.5,0.0,0.0,0.0,0.0,0.0,0.25,0.0,1.62,0.7,0.65,0.2655,3.0,1.0897,True,monoclinic,2/m,14,25.3698,6.1833,0.7985
O8 Sr3 V2,3,0.0,0.0,0.2308,0.6154,0.0,0.0,0.0,0.0,0.0,0.1538,0.0,2.49,1.0987,1.4,0.5887,3.0,1.3009,True,trigonal,-3m,166,14.7302,4.2728,1.0
Ga1 O6 Sb1 Sr2,4,0.0,0.0,0.2,0.6,0.0,0.0,0.1,0.0,0.0,0.0,-0.8,2.49,1.029,1.4,0.5692,3.0,1.3748,True,cubic,m-3m,225,12.692,6.0539,1.0
C1 In1 Tm3,3,0.0,0.0,0.0,0.0,0.0,0.6,0.0,0.0,0.6,0.0,1.6,1.3,0.5101,1.05,0.4074,6.0,2.4,True,cubic,m-3m,221,33.3953,6.3013,1.0
La2 Ni2 Sb2,3,0.0,0.0,0.0,0.0,0.0,0.3333,0.3333,0.0,0.3333,0.6667,0.6667,0.95,0.4188,0.6,0.2625,4.0,1.6997,True,hexagonal,6/mmm,194,23.822,7.4204,0.5283
Au2 K6 Se26,3,0.0,0.1765,0.0,0.7647,0.0,0.0,0.0,0.0,0.0,0.0588,-1.1765,1.73,0.6592,1.05,0.3976,2.0,0.4706,True,monoclinic,2/m,13,31.9139,4.1036,0.3325
Bi1 Na1,2,0.0,0.5,0.0,0.0,0.0,0.0,0.0,0.0,0.0,0.0,2.0,1.09,0.545,0.2,0.1,3.0,1.5,True,tetragonal,4/mmm,123,29.0597,6.6277,0.6944
Ba2 F8 Mg2,3,0.0,0.0,0.3333,0.0,0.6667,0.0,0.0,0.0,0.0,0.0,0.0,3.09,1.363,1.65,0.6522,4.0,1.4625,True,orthorhombic,mm2,36,15.3116,4.2951,0.5396
B4 Mn1,2,0.0,0.0,0.0,0.0,0.0,0.0,0.8,0.0,0.0,0.2,2.8,0.49,0.196,0.55,0.22,2.0,0.8,True,orthorhombic,mmm,71,7.355,4.4333,0.7688
B4 Li4 Se10,3,0.0,0.2222,0.0,0.5556,0.0,0.0,0.2222,0.0,0.0,0.0,-0.2222,1.57,0.626,0.6,0.2,2.0,0.9938,True,monoclinic,2/m,15,18.8793,4.2053,0.4388
Li2 O8 Ti4,3,0.0,0.1429,0.0,0.5714,0.0,0.0,0.0,0.0,0.0,0.2857,0.1429,2.46,1.047,0.85,0.4044,2.0,0.9035,True,cubic,m-3m,227,10.8336,3.6496,1.0
B10 Ca6 La6 O30,4,0.0,0.0,0.1154,0.5769,0.0,0.1154,0.1923,0.0,0.1154,0.1154,0.0,2.44,1.0109,1.35,0.5209,6.0,1.9399,True,hexagonal,6mm,186,12.0703,4.397,1.6455
Ge8 Li8,2,0.0,0.5,0.0,0.0,0.0,0.0,0.5,0.0,0.0,0.0,-1.5,1.03,0.515,0.2,0.1,2.0,1.0,True,tetragonal,4/m,88,17.5599,3.7628,0.7663
Cl48 N16 Se32,3,0.0,0.0,0.0,0.3333,0.5,0.0,0.0,0.0,0.0,0.0,-1.6667,0.61,0.2767,0.5,0.1669,2.0,0.6872,True,orthorhombic,mmm,61,30.663,2.5117,0.3188
Al4 Ni2 O8,3,0.0,0.0,0.0,0.5714,0.0,0.0,0.0,0.0,0.0,0.1429,0.0,1.83,0.8611,0.75,0.3396,2.0,0.7284,True,orthorhombic,mmm,74,9.5223,4.4008,0.9908
H4 Mg2 O10 S2,4,0.0,0.0,0.1111,0.5556,0.0,0.0,0.0,0.0,0.0,0.0,-1.3333,2.13,0.7474,1.25,0.3613,2.0,0.6667,True,monoclinic,2/m,15,10.2928,2.4806,0.6797
Bi4 Ga8 O18,3,0.0,0.0,0.0,0.6,0.0,0.0,0.0,0.0,0.0,0.0,0.0,1.63,0.7668,1.0,0.402,4.0,1.436,True,orthorhombic,mmm,55,13.5886,6.8502,0.7111
Ce1 Tl3,2,0.0,0.0,0.0,0.0,0.0,0.25,0.0,0.0,0.25,0.0,1.5,0.5,0.2165,0.05,0.0217,2.0,0.866,True,cubic,m-3m,221,28.1021,11.1275,1.0
Cr4 Hg2 S8,3,0.0,0.0,0.0,0.0,0.0,0.0,0.0,0.0,0.0,0.4286,-0.1429,0.92,0.4128,0.5,0.2167,3.0,1.0302,True,cubic,m-3m,227,19.7759,5.1921,1.0
Cl16 Fe4 K4,3,0.0,0.1667,0.0,0.0,0.6667,0.0,0.0,0.0,0.0,0.1667,-0.1667,2.34,0.9128,1.2,0.4422,1.0,0.4714,True,monoclinic,2,4,31.6443,2.0706,0.6922
Pd2 Si2 Sm1,3,0.0,0.0,0.0,0.0,0.0,0.2,0.4,0.0,0.2,0.4,-0.2,1.03,0.3767,0.75,0.275,5.0,1.833,True,tetragonal,4/mmm,139,17.6861,7.8749,0.7239
Ca1 Cu5,2,0.0,0.0,0.1667,0.0,0.0,0.0,0.0,0.0,0.0,0.8333,2.0,0.9,0.3354,0.45,0.1677,0.0,0.0,True,hexagonal,6/mmm,191,15.1486,6.5369,1.2681
Ir1,1,0.0,0.0,0.0,0.0,0.0,0.0,0.0,0.0,0.0,1.0,3.0,0.0,0.0,0.0,0.0,0.0,0.0,True,cubic,m-3m,225,14.5546,21.9301,1.0
C2 In2 Nb4,3,0.0,0.0,0.0,0.0,0.0,0.0,0.0,0.0,0.0,0.5,2.25,0.95,0.3923,0.85,0.3416,3.0,1.299,True,hexagonal,6/mmm,194,16.0823,8.0702,0.2202
Cr1 O3 Sm1,3,0.0,0.0,0.0,0.6,0.0,0.2,0.0,0.0,0.2,0.2,0.0,2.27,1.0041,1.25,0.5219,6.0,2.3324,True,cubic,m-3m,221,11.6756,7.1212,1.0
O28 P8 Pb8,3,0.0,0.0,0.0,0.6364,0.0,0.0,0.0,0.0,0.0,0.0,-1.4545,1.25,0.5692,1.2,0.4542,4.0,1.5048,True,triclinic,-1,2,14.8862,5.9663,0.5463
Nb1,1,0.0,0.0,0.0,0.0,0.0,0.0,0.0,0.0,0.0,1.0,5.0,0.0,0.0,0.0,0.0,0.0,0.0,True,cubic,m-3m,229,18.3058,8.4277,1.0
Cu8 P16 Si2,3,0.0,0.0,0.0,0.0,0.0,0.0,0.0769,0.0,0.0,0.3077,-1.5385,0.29,0.1411,0.35,0.1586,1.0,0.4615,True,tetragonal,4/m,88,16.4933,4.1051,0.6299
Er2 Sn4,2,0.0,0.0,0.0,0.0,0.0,0.3333,0.0,0.0,0.3333,0.0,-1.6667,0.72,0.3394,0.3,0.1414,3.0,1.4142,True,orthorhombic,mmm,63,25.9999,8.6152,0.5167
Ga4 Nd4 O12,3,0.0,0.0,0.0,0.6,0.0,0.2,0.0,0.0,0.2,0.0,0.0,2.3,0.9857,1.25,0.5083,6.0,2.3324,True,orthorhombic,mmm,62,11.9856,7.2587,0.7013
Li1 N1 Zn1,3,0.0,0.3333,0.0,0.0,0.0,0.0,0.0,0.0,0.0,0.3333,0.0,2.06,0.8579,0.8,0.3559,2.0,0.9428,True,cubic,-43m,216,10.0199,4.7705,1.0
Nd1 Sb1,2,0.0,0.0,0.0,0.0,0.0,0.5,0.5,0.0,0.5,0.0,0.0,0.91,0.455,0.4,0.2,3.0,1.5,True,tetragonal,4/mmm,139,32.769,6.7397,1.0
P2,1,0.0,0.0,0.0,0.0,0.0,0.0,0.0,0.0,0.0,0.0,-3.0,0.0,0.0,0.0,0.0,0.0,0.0,True,triclinic,-1,2,14.6609,3.5082,2.2372
Cl48 I8 Nb24,3,0.0,0.0,0.0,0.0,0.7,0.0,0.0,0.0,0.0,0.3,0.8,1.56,0.6977,0.45,0.2148,2.0,0.9798,True,cubic,m-3,205,26.7816,3.8339,1.0
Ca8 N12 V4,3,0.0,0.0,0.3333,0.0,0.0,0.0,0.0,0.0,0.0,0.1667,0.0,2.04,0.9388,1.15,0.522,2.0,1.0,True,monoclinic,2/m,15,14.3047,3.3493,0.4841
Cu5 O14 Si4,3,0.0,0.0,0.0,0.6087,0.0,0.0,0.1739,0.0,0.0,0.2174,-1.4783,1.54,0.7516,0.75,0.3213,2.0,0.8203,True,triclinic,-1,2,12.4907,3.7806,1.3369
Ga8 O32 Si8 Sr4,4,0.0,0.0,0.0769,0.6154,0.0,0.0,0.1538,0.0,0.0,0.0,-1.2308,2.49,0.8884,1.4,0.4233,3.0,0.9911,True,monoclinic,2/m,15,14.5508,3.61,0.9093
Ga3 Tb1,2,0.0,0.0,0.0,0.0,0.0,0.25,0.0,0.0,0.25,0.0,3.0,1.81,0.7838,0.45,0.1949,4.0,1.7321,True,cubic,m-3m,221,19.6948,7.7588,1.0
Au2 Ho1 In1,3,0.0,0.0,0.0,0.0,0.0,0.25,0.0,0.0,0.25,0.5,3.0,1.31,0.5528,0.4,0.1658,3.0,1.0897,True,cubic,m-3m,225,21.3392,13.1058,1.0
C1 Pb1 Pd3,3,0.0,0.0,0.0,0.0,0.0,0.0,0.0,0.0,0.0,0.6,0.8,0.35,0.1366,1.1,0.3555,4.0,1.3565,True,cubic,m-3m,221,15.8897,11.2545,1.0
Co6 Ge2 Mn4,3,0.0,0.0,0.0,0.0,0.0,0.0,0.1667,0.0,0.0,0.8333,1.0,0.46,0.177,0.15,0.05,0.0,0.0,True,hexagonal,6/mmm,194,12.6446,7.8645,0.6302
Ag2 C4 Cs2,3,0.0,0.25,0.0,0.0,0.0,0.0,0.0,0.0,0.0,0.25,-1.5,1.76,0.7187,1.9,0.7842,4.0,1.7854,True,tetragonal,4/mmm,131,31.8958,3.4464,0.5904
Cl2 H2 O2 Sr2,4,0.0,0.0,0.25,0.25,0.25,0.0,0.0,0.0,0.0,0.0,-0.5,2.49,0.9742,1.75,0.6551,4.0,1.479,True,hexagonal,6mm,186,19.0887,3.0464,0.415
Ba4 F8 O6 W2,4,0.0,0.0,0.2,0.3,0.4,0.0,0.0,0.0,0.0,0.1,-0.2,3.09,1.1714,1.65,0.6494,4.0,1.833,True,monoclinic,m,9,16.6371,5.8138,0.9663
Al1 Pt3,2,0.0,0.0,0.0,0.0,0.0,0.0,0.0,0.0,0.0,0.75,2.25,0.67,0.2901,0.1,0.0433,3.0,1.299,True,cubic,m-3m,221,15.1034,16.8279,1.0
Fe4 O8 Ti2,3,0.0,0.0,0.0,0.5714,0.0,0.0,0.0,0.0,0.0,0.4286,0.0,1.9,0.8493,0.8,0.3959,2.0,0.9897,True,orthorhombic,mmm,74,11.6807,4.5401,1.0107
O24 Te4 Y8,3,0.0,0.0,0.0,0.7778,0.0,0.0,0.1111,0.0,0.0,0.2222,-0.8889,2.22,0.9393,1.2,0.5145,3.0,1.4142,True,orthorhombic,222,19,13.6321,5.4329,0.5289
Co4 Ga1 Y4,3,0.0,0.0,0.0,0.0,0.0,0.0,0.0,0.0,0.0,0.8889,2.5556,0.66,0.3217,0.5,0.2291,1.0,0.4969,True,monoclinic,2/m,12,19.2504,6.3361,0.4561
Au1 Tb1,2,0.0,0.0,0.0,0.0,0.0,0.5,0.0,0.0,0.5,0.5,3.0,2.54,1.27,0.4,0.2,2.0,1.0,True,cubic,m-3m,221,23.7598,12.4364,1.0
H56 Mg4 O44 S4,4,0.0,0.0,0.037,0.4074,0.0,0.0,0.0,0.0,0.0,0.0,-1.3333,2.13,0.6516,1.25,0.2858,2.0,0.6285,True,orthorhombic,222,19,9.1291,1.6605,0.5633
Ni2 Ta4,2,0.0,0.0,0.0,0.0,0.0,0.0,0.0,0.0,0.0,1.0,4.0,0.41,0.1933,0.1,0.0471,2.0,0.9428,True,tetragonal,4/mmm,140,15.7445,14.7862,0.9677
In1 Li2 Pt1,3,0.0,0.5,0.0,0.0,0.0,0.0,0.0,0.0,0.0,0.25,1.75,1.3,0.554,0.2,0.0707,4.0,1.7854,True,cubic,-43m,216,16.2558,8.2687,1.0
Ce1 O1,2,0.0,0.0,0.0,0.5,0.0,0.5,0.0,0.0,0.5,0.0,0.5,2.32,1.16,1.25,0.625,6.0,3.0,True,cubic,m-3m,225,15.4923,8.3666,1.0
Se2 Ta1,2,0.0,0.0,0.0,0.6667,0.0,0.0,0.0,0.0,0.0,0.3333,0.3333,1.05,0.495,0.3,0.1414,2.0,0.9428,True,trigonal,3m,160,24.7341,7.5834,1.0
Cd4 O8 Sn2,3,0.0,0.0,0.0,0.5714,0.0,0.0,0.0,0.0,0.0,0.2857,-1.1429,1.75,0.8257,0.95,0.4547,3.0,1.4846,True,orthorhombic,mmm,55,13.3149,7.2606,0.3209
Ba1 Np1 O3,3,0.2,0.0,0.2,0.6,0.0,0.0,0.0,0.0,0.2,0.0,0.2,2.55,1.1438,1.55,0.6733,7.0,2.8566,True,cubic,m-3m,221,17.3792,8.0704,1.0
Co2 Ge2 Ho1,3,0.0,0.0,0.0,0.0,0.0,0.2,0.4,0.0,0.2,0.4,-0.2,0.78,0.2918,0.5,0.1855,4.0,1.6,True,tetragonal,4/mmm,139,15.789,9.0042,0.6841
Mn2 O14 P4,3,0.0,0.0,0.0,0.7,0.0,0.0,0.0,0.0,0.0,0.1,-1.8,1.89,0.6906,0.8,0.2653,2.0,0.6633,True,monoclinic,2,4,12.4941,3.042,0.607
F18 Ge3 Na6,3,0.0,0.2222,0.0,0.0,0.6667,0.0,0.1111,0.0,0.0,0.0,-0.8889,3.05,1.3017,1.3,0.5473,2.0,0.6849,True,trigonal,-3m,164,13.7104,3.1303,2.0466
Bi4 O14 Sn4,3,0.0,0.0,0.0,0.6364,0.0,0.0,0.0,0.0,0.0,0.0,-1.4545,1.48,0.6978,1.0,0.4473,4.0,1.7104,True,cubic,m-3m,227,14.095,8.2186,1.0
Na2 P2 Sn2,3,0.0,0.3333,0.0,0.0,0.0,0.0,0.0,0.0,0.0,0.0,-2.0,1.26,0.5479,0.8,0.3274,2.0,0.9428,True,hexagonal,6mm,186,26.1723,3.6518,0.3337
Na4 O12 Si4 Zn2,4,0.0,0.1818,0.0,0.5455,0.0,0.0,0.1818,0.0,0.0,0.0909,-1.4545,2.51,1.0294,1.2,0.4648,2.0,0.6556,True,orthorhombic,mm2,43,13.4012,2.9688,0.4574
Ge2 Li8 O8,3,0.0,0.4444,0.0,0.4444,0.0,0.0,0.1111,0.0,0.0,0.0,-0.8889,2.46,1.1614,0.85,0.4069,2.0,0.6285,True,orthorhombic,mmm,63,9.986,3.0375,0.8823