formula,numberOfSpecies,fracActinoid,fracAlkali,fracAlkaline,fracChalcogen,fracHalogen,fracLanthanoid,fracMetalloid,fracNobleGas,fracRareEarth,fracTransitionMetal,electronsPerAtom,electronegativityRange,electronegativityStd,radiiRange,radiiStd,rowRange,rowStd,ordered,crystalSystem,pointGroup,spaceGroupNumber,volumePerSite,density,c_a
Al2 Cl16 Nb2,3,0.0,0.0,0.0,0.0,0.8,0.0,0.0,0.0,0.0,0.1,0.0,1.56,0.622,0.45,0.147,2.0,0.6,True,orthorhombic,mmm,63,33.7794,1.9836,0.8707
Y2,1,0.0,0.0,0.0,0.0,0.0,0.0,0.0,0.0,0.0,1.0,3.0,0.0,0.0,0.0,0.0,0.0,0.0,True,hexagonal,6/mmm,194,32.847,4.4945,0.6458
Cl20 Pu4 Rb8,3,0.125,0.25,0.0,0.0,0.625,0.0,0.0,0.0,0.125,0.0,0.125,2.34,1.0669,1.35,0.5831,6.0,1.9843,True,orthorhombic,mmm,62,31.4936,3.9031,0.6144
Au2 Ge2 Ho2,3,0.0,0.0,0.0,0.0,0.0,0.3333,0.3333,0.0,0.3333,0.3333,0.6667,1.31,0.538,0.5,0.216,4.0,1.633,True,hexagonal,6mm,186,21.0535,11.4243,0.6135
Er1,1,0.0,0.0,0.0,0.0,0.0,1.0,0.0,0.0,1.0,0.0,3.0,0.0,0.0,0.0,0.0,0.0,0.0,True,cubic,m-3m,229,31.1043,8.9293,1.0
Bi1 I1 Te1,3,0.0,0.0,0.0,0.3333,0.3333,0.0,0.3333,0.0,0.0,0.0,0.0,0.64,0.2847,0.2,0.0943,1.0,0.4714,True,trigonal,3m,156,41.7077,6.151,0.5998
Hf1 Ni2 Sn1,3,0.0,0.0,0.0,0.0,0.0,0.0,0.0,0.0,0.0,0.75,1.0,0.66,0.2721,0.2,0.0829,2.0,0.8292,True,cubic,m-3m,225,15.423,11.1593,1.0
B8 Cu2 O20 Tm4,4,0.0,0.0,0.0,0.5882,0.0,0.1176,0.2353,0.0,0.1176,0.0588,-0.0,2.19,0.8401,1.15,0.3829,6.0,1.9474,True,monoclinic,2/m,14,9.0957,6.4934,0.4911
Ba4 F2 In2 O6,4,0.0,0.0,0.2857,0.4286,0.1429,0.0,0.0,0.0,0.0,0.0,-0.0,3.09,1.2262,1.65,0.706,4.0,1.8406,True,tetragonal,4/mmm,129,18.1108,5.9789,0.2983
Cd1 Li2 Pb1,3,0.0,0.5,0.0,0.0,0.0,0.0,0.0,0.0,0.0,0.25,1.5,1.35,0.5625,0.35,0.1431,4.0,1.7854,True,cubic,-43m,216,21.4762,6.4464,1.0
Cs4 Ni6 S8,3,0.0,0.2222,0.0,0.0,0.0,0.0,0.0,0.0,0.0,0.3333,0.0,1.79,0.6898,1.6,0.6219,3.0,1.1547,True,hexagonal,6/mmm,194,25.4452,4.1342,0.3867
C32 F96 K16 N16 O64 S32,6,0.0,0.0625,0.0,0.25,0.375,0.0,0.0,0.0,0.0,0.0,-1.75,3.16,0.8354,1.7,0.4108,2.0,0.559,True,orthorhombic,mmm,60,15.8698,2.0878,0.5728
C4 V8,2,0.0,0.0,0.0,0.0,0.0,0.0,0.0,0.0,0.0,0.6667,2.0,0.92,0.4337,0.65,0.3064,2.0,0.9428,True,orthorhombic,mmm,60,10.9807,5.7411,0.7947
As6 Rh7 Yb4,3,0.0,0.0,0.0,0.0,0.0,0.2353,0.3529,0.0,0.2353,0.4118,0.8824,2.28,0.9486,0.6,0.2263,4.0,1.5317,True,cubic,m-3m,229,17.1374,10.6131,1.0
B72 C16 H88,3,0.0,0.0,0.0,0.0,0.0,0.0,0.4091,0.0,0.0,0.0,0.3636,0.51,0.1431,0.6,0.2893,1.0,0.5,True,monoclinic,2/m,15,9.8773,1.0118,0.3191
Nb2 Ni6,2,0.0,0.0,0.0,0.0,0.0,0.0,0.0,0.0,0.0,1.0,2.75,0.31,0.1342,0.1,0.0433,1.0,0.433,True,orthorhombic,mmm,59,12.4065,9.0006,0.832
Bi8 Mo4 O24,3,0.0,0.0,0.0,0.6667,0.0,0.0,0.0,0.0,0.0,0.1111,-0.2222,1.42,0.6485,1.0,0.4497,4.0,1.7498,True,orthorhombic,mm2,29,14.5845,7.7157,0.3359
Ba2 Cl2 H2,3,0.0,0.0,0.3333,0.0,0.3333,0.0,0.0,0.0,0.0,0.0,0.0,2.27,0.9304,1.9,0.7814,5.0,2.0548,True,tetragonal,4/mmm,129,23.9827,4.011,0.6064
Br2 Cd4 P6,3,0.0,0.0,0.0,0.0,0.1667,0.0,0.0,0.0,0.0,0.3333,-1.0,1.27,0.4251,0.55,0.2473,2.0,0.8975,True,monoclinic,m,9,23.8069,4.6227,0.8074
Ca4 O14 Sb4,3,0.0,0.0,0.1818,0.6364,0.0,0.0,0.1818,0.0,0.0,0.0,-1.4545,2.44,0.9741,1.2,0.5042,3.0,1.2398,True,cubic,m-3m,227,12.7408,5.162,1.0
O28 P8 Rb4 V4,4,0.0,0.0909,0.0,0.6364,0.0,0.0,0.0,0.0,0.0,0.0909,-1.2727,2.62,0.8995,1.75,0.5183,3.0,0.9791,True,monoclinic,2/m,14,14.386,3.2567,0.7481
Ba1 Pd5,2,0.0,0.0,0.1667,0.0,0.0,0.0,0.0,0.0,0.0,0.8333,2.0,1.31,0.4882,0.75,0.2795,1.0,0.3727,True,hexagonal,6/mmm,191,20.0624,9.2346,1.2683
In2 Sc6,2,0.0,0.0,0.0,0.0,0.0,0.0,0.0,0.0,0.0,0.75,3.0,0.42,0.1819,0.05,0.0217,1.0,0.433,True,hexagonal,6/mmm,194,23.3294,4.443,1.2286
As2 F10,2,0.0,0.0,0.0,0.0,0.8333,0.0,0.1667,0.0,0.0,0.0,-1.3333,1.8,0.6708,0.65,0.2422,2.0,0.7454,True,hexagonal,6/mmm,194,16.8721,2.7871,0.8991
As4 Pd8,2,0.0,0.0,0.0,0.0,0.0,0.0,0.3333,0.0,0.0,0.6667,0.3333,0.02,0.0094,0.25,0.1179,1.0,0.4714,True,orthorhombic,mm2,36,16.0003,9.9548,0.3804
Sr1 Te1,2,0.0,0.0,0.5,0.5,0.0,0.0,0.5,0.0,0.0,0.0,0.0,1.15,0.575,0.6,0.3,0.0,0.0,True,cubic,m-3m,225,38.0034,4.702,1.0
Ce3 Pd3 Zn3,3,0.0,0.0,0.0,0.0,0.0,0.3333,0.0,0.0,0.3333,0.6667,2.3333,1.08,0.4409,0.5,0.2248,4.0,1.6997,True,hexagonal,-6m2,189,20.7905,8.305,1.8408
Fe1 Nb1 Sb1,3,0.0,0.0,0.0,0.0,0.0,0.0,0.3333,0.0,0.0,0.6667,1.3333,0.45,0.1837,0.05,0.0236,1.0,0.4714,True,cubic,-43m,216,17.7224,8.4487,1.0
F28 K8 Nb4,3,0.0,0.2,0.0,0.0,0.7,0.0,0.0,0.0,0.0,0.1,0.0,3.16,1.3441,1.7,0.6921,3.0,1.1,True,monoclinic,2/m,14,16.7785,3.0095,0.4611
As2 Ba1 Ni2 O8,4,0.0,0.0,0.0769,0.6154,0.0,0.0,0.1538,0.0,0.0,0.1538,-1.2308,2.55,0.8447,1.55,0.4647,4.0,1.2686,True,trigonal,-3,148,13.54,5.024,1.0
Ni3 Se3,2,0.0,0.0,0.0,0.5,0.0,0.0,0.0,0.0,0.0,0.5,0.0,0.64,0.32,0.2,0.1,0.0,0.0,True,trigonal,3m,160,16.0496,7.121,1.0
B2 La3 N3 Ni2,4,0.0,0.0,0.0,0.0,0.0,0.3,0.2,0.0,0.3,0.5,1.0,1.94,0.7539,1.3,0.5367,6.0,2.6,True,tetragonal,4/mmm,139,14.143,7.0182,0.3652
Mg12 Ni6,2,0.0,0.0,0.6667,0.0,0.0,0.0,0.0,0.0,0.0,0.3333,2.0,0.6,0.2828,0.15,0.0707,1.0,0.4714,True,hexagonal,622,180,17.0607,3.4813,0.3953
B40 H64,2,0.0,0.0,0.0,0.0,0.0,0.0,0.3846,0.0,0.0,0.0,0.5385,0.16,0.0778,0.6,0.2919,1.0,0.4865,True,orthorhombic,mm2,33,10.0989,0.7857,0.3992
Fe2 Zr4,2,0.0,0.0,0.0,0.0,0.0,0.0,0.0,0.0,0.0,1.0,3.3333,0.5,0.2357,0.15,0.0707,1.0,0.4714,True,tetragonal,4/mmm,140,18.82,7.0084,1.0
Ni1 Rh2 Se4,3,0.0,0.0,0.0,0.5714,0.0,0.0,0.0,0.0,0.0,0.4286,0.0,0.64,0.2257,0.2,0.099,1.0,0.4518,True,monoclinic,2/m,12,18.1902,7.5683,0.5801
Rh2 V2,2,0.0,0.0,0.0,0.0,0.0,0.0,0.0,0.0,0.0,1.0,4.0,0.65,0.325,0.0,0.0,1.0,0.5,True,tetragonal,4/mmm,123,13.7802,9.2694,0.9447
Co3 Sn3 U3,3,0.3333,0.0,0.0,0.0,0.0,0.0,0.0,0.0,0.3333,0.3333,1.3333,0.58,0.2566,0.4,0.17,5.0,2.1602,True,hexagonal,-6m2,189,19.3464,11.8926,1.7409
Ba12 O34 Ti8 Y4,4,0.0,0.0,0.2069,0.5862,0.0,0.0,0.0,0.0,0.0,0.2069,0.0,2.55,1.1377,1.55,0.6486,4.0,1.6631,True,hexagonal,6/mmm,194,16.1491,5.1953,0.1999
Al2 Ge2 Sm2,3,0.0,0.0,0.0,0.0,0.0,0.3333,0.3333,0.0,0.3333,0.0,0.6667,0.84,0.3431,0.6,0.2828,5.0,2.1602,True,tetragonal,4mm,109,21.8937,6.32,0.5323
In2 Se4 Zn1,3,0.0,0.0,0.0,0.5714,0.0,0.0,0.0,0.0,0.0,0.1429,0.0,0.9,0.4045,0.4,0.1761,1.0,0.4518,True,tetragonal,-4,82,28.3809,5.106,0.8135
Ga3 Ti1,2,0.0,0.0,0.0,0.0,0.0,0.0,0.0,0.0,0.0,0.25,3.25,0.27,0.1169,0.1,0.0433,0.0,0.0,True,tetragonal,4/mmm,139,15.9635,6.6843,0.7368
Li1,1,0.0,1.0,0.0,0.0,0.0,0.0,0.0,0.0,0.0,0.0,1.0,0.0,0.0,0.0,0.0,0.0,0.0,True,cubic,m-3m,225,20.2154,0.5702,1.0
Mn4 O20 Te8,3,0.0,0.0,0.0,0.875,0.0,0.0,0.25,0.0,0.0,0.125,-1.5,1.89,0.7544,0.8,0.3873,3.0,1.3229,True,orthorhombic,mmm,60,16.1591,5.0114,0.5594
Bi1 Rb1 S2,3,0.0,0.25,0.0,0.0,0.0,0.0,0.0,0.0,0.0,0.0,0.0,1.76,0.7186,1.35,0.5549,3.0,1.299,True,trigonal,-3m,166,29.3365,5.0742,1.0
O5 Ti4,2,0.0,0.0,0.0,0.5556,0.0,0.0,0.0,0.0,0.0,0.4444,0.6667,1.9,0.9441,0.8,0.3975,2.0,0.9938,True,tetragonal,4/m,87,10.2515,4.8858,0.8148
Ag2 As2 Hg2 S6,4,0.0,0.0,0.0,0.0,0.0,0.0,0.1667,0.0,0.0,0.3333,-1.1667,0.65,0.2817,0.6,0.249,3.0,1.1547,True,monoclinic,m,9,23.7529,5.5878,0.844
As4 Os2,2,0.0,0.0,0.0,0.0,0.0,0.0,0.6667,0.0,0.0,0.3333,-0.6667,0.02,0.0094,0.15,0.0707,2.0,0.9428,True,orthorhombic,mmm,58,17.4484,10.7881,0.4877
Al4 Ba4 F20,3,0.0,0.0,0.1429,0.0,0.7143,0.0,0.0,0.0,0.0,0.0,-0.0,3.09,1.2482,1.65,0.5931,4.0,1.3851,True,orthorhombic,222,19,14.4029,4.2708,0.3652
Ag2 C2 N2 O2,4,0.0,0.0,0.0,0.25,0.0,0.0,0.0,0.0,0.0,0.25,-2.0,1.51,0.564,1.0,0.4129,3.0,1.299,True,orthorhombic,mmm,63,18.1853,3.4216,0.7688
Cl16 Sn8,2,0.0,0.0,0.0,0.0,0.6667,0.0,0.0,0.0,0.0,0.0,-2.0,1.2,0.5657,0.45,0.2121,2.0,0.9428,True,monoclinic,2/m,14,29.4102,3.5687,0.2662
In1 Mn1 Ni2,3,0.0,0.0,0.0,0.0,0.0,0.0,0.0,0.0,0.0,0.75,2.25,0.36,0.147,0.2,0.082,1.0,0.433,True,cubic,m-3m,225,13.8385,8.6139,1.0
Ag2 Au4 S4,3,0.0,0.0,0.0,0.0,0.0,0.0,0.0,0.0,0.0,0.6,0.6,0.65,0.2526,0.6,0.2311,3.0,1.3565,True,monoclinic,m,7,23.2812,8.0731,0.6111
Cu2 F8 Fe1 H21 O10,5,0.0,0.0,0.0,0.2381,0.1905,0.0,0.0,0.0,0.0,0.0714,-1.0238,2.15,0.7769,1.15,0.2929,3.0,0.8113,True,triclinic,1,1,9.0122,2.2641,0.8329
Si2 V6,2,0.0,0.0,0.0,0.0,0.0,0.0,0.25,0.0,0.0,0.75,2.75,0.27,0.1169,0.25,0.1083,1.0,0.433,True,cubic,m-3m,223,13.0243,5.7663,1.0
F12 Yb4,2,0.0,0.0,0.0,0.0,0.75,0.25,0.0,0.0,0.25,0.0,0.0,3.98,1.7234,1.25,0.5413,6.0,2.5981,True,orthorhombic,mmm,62,12.0389,7.9323,0.5789
Na1 O2 Ti1,3,0.0,0.25,0.0,0.5,0.0,0.0,0.0,0.0,0.0,0.25,0.25,2.51,1.1234,1.2,0.5196,2.0,0.8292,True,trigonal,-3m,166,10.9695,3.8925,1.0
O4 Ru1 Sr2,3,0.0,0.0,0.2857,0.5714,0.0,0.0,0.0,0.0,0.0,0.1429,-0.1429,2.49,1.0962,1.4,0.6164,3.0,1.4846,True,tetragonal,4/mmm,139,14.0422,5.749,0.5563
Cl4 N4 S6,3,0.0,0.0,0.0,0.0,0.2857,0.0,0.0,0.0,0.0,0.0,-2.0,0.58,0.2613,0.35,0.1581,1.0,0.4518,True,monoclinic,2,4,24.345,1.9012,0.6228
Na6 O9 S2,3,0.0,0.3529,0.0,0.5294,0.0,0.0,0.0,0.0,0.0,0.0,-0.9412,2.51,1.156,1.2,0.5528,1.0,0.4991,True,cubic,m-3m,225,13.7693,2.455,1.0
B4 V6,2,0.0,0.0,0.0,0.0,0.0,0.0,0.4,0.0,0.0,0.6,4.2,0.41,0.2009,0.5,0.2449,2.0,0.9798,True,tetragonal,4/mmm,127,9.9101,5.8461,0.5266
Ba1 Ga4,2,0.0,0.0,0.2,0.0,0.0,0.0,0.0,0.0,0.0,0.0,2.8,0.92,0.368,0.85,0.34,2.0,0.8,True,tetragonal,4/mmm,139,23.2609,5.9426,0.7276
In1 N1,2,0.0,0.0,0.0,0.0,0.0,0.0,0.0,0.0,0.0,0.0,0.0,1.26,0.63,0.9,0.45,3.0,1.5,True,cubic,-43m,216,16.1372,6.6281,1.0
F6 Rh1 Sr1,3,0.0,0.0,0.125,0.0,0.75,0.0,0.0,0.0,0.0,0.125,-0.125,3.03,1.0767,1.5,0.5341,3.0,1.299,True,trigonal,-3m,166,13.8644,4.559,1.0
Er2 F2 S2,3,0.0,0.0,0.0,0.0,0.3333,0.3333,0.0,0.0,0.3333,0.0,0.0,2.74,1.1187,1.25,0.5137,6.0,2.6247,True,tetragonal,4/mmm,129,15.9683,7.5677,0.5488
Au4 Sr2,2,0.0,0.0,0.3333,0.0,0.0,0.0,0.0,0.0,0.0,0.6667,2.6667,1.59,0.7495,0.65,0.3064,1.0,0.4714,True,orthorhombic,mmm,74,25.6403,10.3956,0.7877
Ir4 Zr12,2,0.0,0.0,0.0,0.0,0.0,0.0,0.0,0.0,0.0,1.0,3.75,0.87,0.3767,0.2,0.0866,1.0,0.433,True,tetragonal,-42m,121,20.9871,9.2155,0.7006
H8 K4 O16 P4,4,0.0,0.125,0.0,0.5,0.0,0.0,0.0,0.0,0.0,0.0,-1.5,2.62,0.8987,1.95,0.5867,3.0,0.927,True,triclinic,-1,2,12.8729,2.1943,0.9795
Cu2 Li8 O16 P4,4,0.0,0.2667,0.0,0.5333,0.0,0.0,0.0,0.0,0.0,0.0667,-1.0667,2.46,1.0602,0.85,0.3776,2.0,0.5735,True,monoclinic,m,7,11.1801,2.7849,1.2684
Ba8 Li2 O24 Ta6,4,0.0,0.05,0.2,0.6,0.0,0.0,0.0,0.0,0.0,0.15,0.0,2.55,1.1462,1.55,0.6282,4.0,1.9079,True,hexagonal,6mm,186,14.407,7.4405,0.3029
H48 N36 P12,3,0.0,0.0,0.0,0.0,0.0,0.0,0.0,0.0,0.0,0.0,-2.0,0.85,0.4076,0.75,0.2663,2.0,0.696,True,monoclinic,2/m,14,9.5423,1.6755,0.4468
Er4 F28 Pt4,3,0.0,0.0,0.0,0.0,0.7778,0.1111,0.0,0.0,0.1111,0.1111,-0.2222,2.74,0.9549,1.25,0.4466,6.0,2.1315,True,monoclinic,2/m,14,14.306,6.3883,0.497
Ni1 Sb1 Tb1,3,0.0,0.0,0.0,0.0,0.0,0.3333,0.3333,0.0,0.3333,0.3333,0.6667,2.05,0.9351,0.4,0.17,4.0,1.6997,True,cubic,-43m,216,21.5409,8.7207,1.0
As16 In8 Na24,3,0.0,0.5,0.0,0.0,0.0,0.0,0.3333,0.0,0.0,0.0,0.0,1.25,0.574,0.65,0.2907,2.0,0.7454,True,monoclinic,2/m,14,24.6449,3.7466,0.4785
K16 O16 Si4,3,0.0,0.4444,0.0,0.4444,0.0,0.0,0.1111,0.0,0.0,0.0,-0.8889,2.62,1.2372,1.6,0.7601,2.0,0.9428,True,monoclinic,2/m,14,18.3917,2.4927,0.6219
C4 H16 N8 S4,4,0.0,0.0,0.0,0.0,0.0,0.0,0.0,0.0,0.0,0.0,-2.0,0.84,0.345,0.75,0.2704,2.0,0.696,True,orthorhombic,mmm,62,12.3309,1.2813,0.6639
Ag1 F12 Sb2,3,0.0,0.0,0.0,0.0,0.8,0.0,0.1333,0.0,0.0,0.0667,-1.1333,2.05,0.7884,1.1,0.4012,3.0,1.2,True,triclinic,-1,2,16.0993,3.9839,0.6011
As2 Np2 Te2,3,0.3333,0.0,0.0,0.3333,0.0,0.0,0.6667,0.0,0.3333,0.0,0.0,0.82,0.3691,0.6,0.2461,5.0,2.1602,True,tetragonal,4/mmm,129,25.0766,9.7015,0.4662
Hg2 Y1,2,0.0,0.0,0.0,0.0,0.0,0.0,0.0,0.0,0.0,1.0,1.6667,0.78,0.3677,0.3,0.1414,1.0,0.4714,True,hexagonal,6/mmm,191,24.5963,11.0288,1.435
Pt6 Se16 Ta4,3,0.0,0.0,0.0,0.6154,0.0,0.0,0.0,0.0,0.0,0.3846,0.0,1.05,0.3692,0.3,0.1206,2.0,0.973,True,orthorhombic,mmm,55,24.0866,8.3727,0.2342
K8 Te12 Zr4,3,0.0,0.3333,0.0,0.5,0.0,0.0,0.5,0.0,0.0,0.1667,0.0,1.28,0.5805,0.8,0.3633,1.0,0.4714,True,monoclinic,2/m,14,37.5758,4.0673,0.488
B2 Ce2 O6,3,0.0,0.0,0.0,0.6,0.0,0.2,0.2,0.0,0.2,0.0,0.0,2.32,0.9565,1.25,0.4848,6.0,2.4,True,monoclinic,2/m,11,12.7348,5.1877,0.6519
Ag8 B8 F32 H16 O8,5,0.0,0.0,0.0,0.1111,0.4444,0.0,0.1111,0.0,0.0,0.1111,-0.4444,2.05,0.902,1.35,0.3866,4.0,1.0999,True,orthorhombic,mmm,61,12.0398,3.2594,0.592
Rb2 Te12,2,0.0,0.1429,0.0,0.8571,0.0,0.0,0.8571,0.0,0.0,0.0,-1.5714,1.28,0.4479,0.95,0.3324,0.0,0.0,True,monoclinic,2/m,15,37.9967,5.3134,0.578
Ge21 Nb30,2,0.0,0.0,0.0,0.0,0.0,0.0,0.4118,0.0,0.0,0.5882,1.2941,0.41,0.2018,0.2,0.0984,1.0,0.4922,True,trigonal,-3m,164,19.5865,7.1691,2.5875
Br10 La4,2,0.0,0.0,0.0,0.0,0.7143,0.2857,0.0,0.0,0.2857,0.2857,0.1429,1.86,0.8403,0.8,0.3614,4.0,1.807,True,monoclinic,2/m,11,33.9695,4.73,0.313
As2 C2 V6,3,0.0,0.0,0.0,0.0,0.0,0.0,0.2,0.0,0.0,0.6,1.6,0.92,0.3786,0.65,0.2522,2.0,0.8,True,orthorhombic,mmm,63,12.1913,6.5313,0.4055
Al4 K12 Te12,3,0.0,0.4286,0.0,0.4286,0.0,0.0,0.4286,0.0,0.0,0.0,0.0,1.28,0.5948,0.95,0.4174,2.0,0.6999,True,monoclinic,2/m,14,39.7898,3.1423,0.615
Al1 As1,2,0.0,0.0,0.0,0.0,0.0,0.0,0.5,0.0,0.0,0.0,0.0,0.57,0.285,0.1,0.05,1.0,0.5,True,cubic,-43m,216,23.5628,3.5907,1.0
Al9 Cl36 Ho3,3,0.0,0.0,0.0,0.0,0.75,0.0625,0.0,0.0,0.0625,0.0,0.0,1.93,0.717,0.75,0.1952,5.0,1.2103,True,trigonal,32,151,33.6308,2.0716,0.6759
C4 H8 Mn2 O12,4,0.0,0.0,0.0,0.4615,0.0,0.0,0.0,0.0,0.0,0.0769,-1.6923,1.89,0.655,1.15,0.2958,3.0,0.7692,True,triclinic,-1,2,10.6573,2.1453,0.6967
Cl8 Cs4 Pt2,3,0.0,0.2857,0.0,0.0,0.5714,0.0,0.0,0.0,0.0,0.1429,0.0,2.37,1.0348,1.6,0.7012,3.0,1.4846,True,orthorhombic,mmm,63,39.0303,3.6632,0.7804
Al1 F4 Tl1,3,0.0,0.0,0.0,0.0,0.6667,0.0,0.0,0.0,0.0,0.0,0.0,2.37,1.1149,1.4,0.5404,4.0,1.4625,True,tetragonal,4/mmm,123,14.7634,5.7618,0.5708
H8 N2 O24 P6 Zr4,5,0.0,0.0,0.0,0.5455,0.0,0.0,0.0,0.0,0.0,0.0909,-1.4545,2.11,0.7332,1.3,0.3463,4.0,1.0415,True,trigonal,3m,161,12.586,2.911,1.0
Fe2 Ho1 Si2,3,0.0,0.0,0.0,0.0,0.0,0.2,0.4,0.0,0.2,0.4,-0.2,0.67,0.2559,0.65,0.2408,5.0,1.8547,True,tetragonal,4/mmm,139,14.8392,7.448,0.7179
C1 Sc3 Tl1,3,0.0,0.0,0.0,0.0,0.0,0.0,0.0,0.0,0.0,0.6,1.2,1.19,0.4611,1.2,0.4069,4.0,1.2649,True,cubic,m-3m,221,18.9386,6.1598,1.0
F120 Sb32,2,0.0,0.0,0.0,0.0,0.7895,0.0,0.2105,0.0,0.0,0.0,-1.4211,1.93,0.7868,0.95,0.3873,3.0,1.223,True,orthorhombic,mm2,29,16.5038,4.0883,0.5688
Ba12 Cr6 S27 U3,4,0.0625,0.0,0.25,0.0,0.0,0.0,0.0,0.0,0.0625,0.125,0.125,1.69,0.7312,1.15,0.4879,6.0,1.75,True,trigonal,32,150,25.3803,4.8248,1.2464
Dy4 O14 Ru4,3,0.0,0.0,0.0,0.6364,0.0,0.1818,0.0,0.0,0.1818,0.1818,-0.1818,2.22,0.8831,1.15,0.4652,6.0,2.3461,True,cubic,m-3m,227,12.2084,7.903,1.0
La3 Mn9 Ni6,3,0.0,0.0,0.0,0.0,0.0,0.1667,0.0,0.0,0.1667,1.0,2.1667,0.81,0.2737,0.6,0.2136,4.0,1.4907,True,hexagonal,6/mmm,191,16.6759,6.9888,2.1934
K16 Se16 Sn4,3,0.0,0.4444,0.0,0.4444,0.0,0.0,0.0,0.0,0.0,0.0,-0.8889,1.73,0.8201,1.05,0.5,1.0,0.3143,True,orthorhombic,mmm,62,36.5562,2.9826,0.5591
Ag2 K4 Sb2,3,0.0,0.5,0.0,0.0,0.0,0.0,0.25,0.0,0.0,0.25,0.0,1.23,0.5865,0.75,0.3416,1.0,0.5,True,orthorhombic,222,20,35.3289,3.6171,0.941
Pu1 Rh2 Si2,3,0.2,0.0,0.0,0.0,0.0,0.0,0.4,0.0,0.2,0.4,0.4,1.0,0.3659,0.65,0.2379,6.0,2.1909,True,tetragonal,4/mmm,139,16.321,10.296,0.6946
O48 P12 V8,3,0.0,0.0,0.0,0.7059,0.0,0.0,0.0,0.0,0.0,0.1176,-1.3529,1.81,0.6879,0.75,0.263,2.0,0.691,True,monoclinic,2/m,14,12.7768,2.9571,0.7141
Cl4 Hg6 Te4,3,0.0,0.0,0.0,0.2857,0.2857,0.0,0.2857,0.0,0.0,0.4286,-0.4286,1.16,0.5077,0.5,0.2119,3.0,1.2454,True,cubic,23,199,32.0279,6.8725,1.0
C6 Si6,2,0.0,0.0,0.0,0.0,0.0,0.0,0.5,0.0,0.0,0.0,-4.0,0.65,0.325,0.4,0.2,1.0,0.5,True,hexagonal,6mm,186,10.4964,3.1716,0.2038
B6 La3 Ru8,3,0.0,0.0,0.0,0.0,0.0,0.1765,0.3529,0.0,0.1765,0.6471,3.0,1.1,0.3997,1.1,0.3796,6.0,2.1176,True,orthorhombic,mmm,69,14.2511,8.8428,0.6046
Ba4 Cu8 O28 Si8,4,0.0,0.0,0.0833,0.5833,0.0,0.0,0.1667,0.0,0.0,0.1667,-1.3333,2.55,0.8975,1.55,0.4709,4.0,1.2134,True,orthorhombic,mmm,62,13.4569,4.4483,0.5263
Sb4 V6,2,0.0,0.0,0.0,0.0,0.0,0.0,0.4,0.0,0.0,0.6,1.8,0.42,0.2058,0.1,0.049,1.0,0.4899,True,trigonal,-3m,166,18.0584,7.2891,1.0
Cl16 Si4,2,0.0,0.0,0.0,0.0,0.8,0.0,0.2,0.0,0.0,0.0,-1.6,1.26,0.504,0.1,0.04,0.0,0.0,True,monoclinic,2/m,14,36.4408,1.5484,0.6538
Ge4 Mn4 Tb4,3,0.0,0.0,0.0,0.0,0.0,0.3333,0.3333,0.0,0.3333,0.3333,0.3333,2.01,0.8599,0.5,0.2095,4.0,1.8856,True,orthorhombic,mmm,62,19.4529,8.1522,0.5181
Ag2 Ge2 Nd1,3,0.0,0.0,0.0,0.0,0.0,0.2,0.4,0.0,0.2,0.4,-0.6,0.87,0.3339,0.6,0.2311,4.0,1.4697,True,tetragonal,4/mmm,139,20.8138,8.062,0.6773
N6 Tl2,2,0.0,0.0,0.0,0.0,0.0,0.0,0.0,0.0,0.0,0.0,-2.0,1.42,0.6149,1.25,0.5413,4.0,1.7321,True,tetragonal,4/mmm,140,18.7723,5.449,1.0
Ba2 Sn2,2,0.0,0.0,0.5,0.0,0.0,0.0,0.0,0.0,0.0,0.0,-1.0,1.07,0.535,0.7,0.35,1.0,0.5,True,orthorhombic,mmm,63,40.5481,5.2427,0.6818
Cu4 Li16 O32 P8,4,0.0,0.2667,0.0,0.5333,0.0,0.0,0.0,0.0,0.0,0.0667,-1.0667,2.46,1.0602,0.85,0.3776,2.0,0.5735,True,monoclinic,2/m,14,11.2151,2.7762,0.9882
Br4 Hg8 N4,3,0.0,0.0,0.0,0.0,0.25,0.0,0.0,0.0,0.0,0.5,-0.5,1.04,0.5008,0.85,0.3482,4.0,1.6583,True,hexagonal,6/mmm,194,28.654,7.1728,0.5899
F4 Na4 Nb4 O24 Ti4 Y4,6,0.0,0.0909,0.0,0.5455,0.0909,0.0,0.0,0.0,0.0,0.2727,0.0,3.05,1.0787,1.3,0.5076,3.0,1.1923,True,monoclinic,2,3,12.6795,4.3773,0.5775
F4 Na2 O4 V2,4,0.0,0.1667,0.0,0.3333,0.3333,0.0,0.0,0.0,0.0,0.1667,-0.0,3.05,1.1839,1.3,0.502,2.0,0.7638,True,monoclinic,2,4,13.4585,2.9597,0.4882
Ni2 P2 U1,3,0.2,0.0,0.0,0.0,0.0,0.0,0.0,0.0,0.2,0.4,0.8,0.81,0.2958,0.75,0.2782,6.0,2.245,True,tetragonal,4/mmm,139,13.8498,10.0081,0.6561
Sm1 Tl1,2,0.0,0.0,0.0,0.0,0.0,0.5,0.0,0.0,0.5,0.0,2.0,0.45,0.225,0.05,0.025,2.0,1.0,True,cubic,m-3m,221,28.9759,10.1647,1.0
Fe2 Ge4 Na2 O12,4,0.0,0.1,0.0,0.6,0.0,0.0,0.2,0.0,0.0,0.1,-1.7,2.51,0.9006,1.2,0.4285,2.0,0.9,True,monoclinic,2/m,15,12.2472,4.3402,0.8197
Ag4 Se4 Tl4,3,0.0,0.0,0.0,0.3333,0.0,0.0,0.0,0.0,0.0,0.3333,0.0,0.93,0.3866,0.75,0.3082,2.0,0.8165,True,orthorhombic,mmm,62,25.5183,8.4857,0.6116
C2 Mg2 O6,3,0.0,0.0,0.2,0.6,0.0,0.0,0.0,0.0,0.0,0.0,-1.6,2.13,0.8372,0.9,0.3521,1.0,0.4,True,trigonal,-3m,167,9.659,2.899,1.0
Be6 K8 O10,3,0.0,0.3333,0.25,0.4167,0.0,0.0,0.0,0.0,0.0,0.0,0.0,2.62,1.1681,1.6,0.6978,2.0,0.9428,True,monoclinic,2/m,15,15.2677,2.3876,0.6202
B4 Fe2 Mo4,3,0.0,0.0,0.0,0.0,0.0,0.0,0.4,0.0,0.0,0.6,3.2,0.33,0.1206,0.6,0.2864,3.0,1.3565,True,tetragonal,4/mmm,127,11.5337,7.7557,0.441
Cd2 Cl12 K8,3,0.0,0.3636,0.0,0.0,0.5455,0.0,0.0,0.0,0.0,0.0909,0.0,2.34,1.1037,1.2,0.5609,2.0,0.6556,True,trigonal,-3m,167,30.203,2.4067,1.0
Ir3 Sn3 Zr3,3,0.0,0.0,0.0,0.0,0.0,0.0,0.0,0.0,0.0,0.6667,1.0,0.87,0.3669,0.2,0.0816,1.0,0.4714,True,hexagonal,-6m2,189,19.6308,11.3391,1.967
Li2 O12 Os2 Pr4,4,0.0,0.1,0.0,0.6,0.0,0.2,0.0,0.0,0.2,0.1,-0.1,2.46,1.0649,1.25,0.5194,6.0,2.498,True,monoclinic,2/m,14,12.6756,7.5324,0.7023
Ag1 F3 Zn1,3,0.0,0.0,0.0,0.0,0.6,0.0,0.0,0.0,0.0,0.4,0.0,2.33,1.0765,1.1,0.4841,3.0,1.2649,True,cubic,m-3m,221,13.5145,5.6588,1.0
Au2 Lu2 Sn2,3,0.0,0.0,0.0,0.0,0.0,0.3333,0.0,0.0,0.3333,0.3333,0.6667,1.27,0.5191,0.4,0.17,1.0,0.4714,True,hexagonal,6mm,186,23.2233,11.6942,0.6318
As8 Zr4,2,0.0,0.0,0.0,0.0,0.0,0.0,0.6667,0.0,0.0,0.3333,-0.6667,0.85,0.4007,0.4,0.1886,1.0,0.4714,True,orthorhombic,mmm,62,19.5179,6.8365,0.4073
Au8 K4,2,0.0,0.3333,0.0,0.0,0.0,0.0,0.0,0.0,0.0,0.6667,2.3333,1.72,0.8108,0.85,0.4007,2.0,0.9428,True,hexagonal,6/mmm,194,23.9299,10.0163,0.5771
Au8 Zn24,2,0.0,0.0,0.0,0.0,0.0,0.0,0.0,0.0,0.0,1.0,2.25,0.89,0.3854,0.0,0.0,2.0,0.866,True,cubic,m-3m,223,15.8813,10.278,1.0
F20 Na8 Sb4,3,0.0,0.25,0.0,0.0,0.625,0.0,0.125,0.0,0.0,0.0,-0.75,3.05,1.3356,1.3,0.5817,3.0,0.9922,True,orthorhombic,222,19,16.3361,3.3383,0.4866
O16 Sb8 Zn4,3,0.0,0.0,0.0,0.5714,0.0,0.0,0.2857,0.0,0.0,0.1429,-1.7143,1.79,0.7639,0.85,0.4053,3.0,1.3553,True,tetragonal,4/mmm,135,16.3222,5.42,0.7015
Ba6 O18 Si6,3,0.0,0.0,0.2,0.6,0.0,0.0,0.2,0.0,0.0,0.0,-1.6,2.55,1.0515,1.55,0.602,4.0,1.5492,True,hexagonal,6/mmm,194,11.6741,6.0712,0.4155
Al2 H12 Li6,3,0.0,0.3,0.0,0.0,0.0,0.0,0.0,0.0,0.0,0.0,0.0,1.22,0.5484,1.2,0.566,2.0,0.6708,True,trigonal,-3,148,8.7764,1.0189,1.0
Ce4 Cu4 Mg2,3,0.0,0.0,0.2,0.0,0.0,0.4,0.0,0.0,0.4,0.4,2.4,0.78,0.3579,0.5,0.2272,5.0,2.1541,True,tetragonal,4/mmm,127,22.4083,6.3971,0.4855
Ni4 Si4 Y4,3,0.0,0.0,0.0,0.0,0.0,0.0,0.3333,0.0,0.0,0.6667,0.3333,0.69,0.3229,0.7,0.2896,2.0,0.8165,True,orthorhombic,mmm,62,17.1838,5.659,0.5787