formula,numberOfSpecies,fracActinoid,fracAlkali,fracAlkaline,fracChalcogen,fracHalogen,fracLanthanoid,fracMetalloid,fracNobleGas,fracRareEarth,fracTransitionMetal,electronsPerAtom,electronegativityRange,electronegativityStd,radiiRange,radiiStd,rowRange,rowStd,ordered,crystalSystem,pointGroup,spaceGroupNumber,volumePerSite,density,c_a
Rb16 S44 Ta8,3,0.0,0.2353,0.0,0.0,0.0,0.0,0.0,0.0,0.0,0.1176,-0.4706,1.76,0.7571,1.35,0.5615,3.0,1.1497,True,orthorhombic,mm2,29,29.8481,3.4574,0.4201
I10 In2 Pb4,3,0.0,0.0,0.0,0.0,0.625,0.0,0.0,0.0,0.0,0.0,0.25,0.88,0.2949,0.4,0.1694,1.0,0.433,True,tetragonal,4/mmm,140,39.5068,6.1143,0.8956
N12 Sr8 Ta4,3,0.0,0.0,0.3333,0.0,0.0,0.0,0.0,0.0,0.0,0.1667,0.0,2.09,0.9708,1.35,0.6115,4.0,1.6997,True,monoclinic,2/m,15,18.1959,6.0567,0.4793
Ho1 Si2,2,0.0,0.0,0.0,0.0,0.0,0.3333,0.6667,0.0,0.3333,0.0,-1.6667,0.67,0.3158,0.65,0.3064,5.0,2.357,True,hexagonal,6/mmm,191,18.9588,6.4552,1.0456
F24 Na8 Zr4,3,0.0,0.2222,0.0,0.0,0.6667,0.0,0.0,0.0,0.0,0.1111,0.0,3.05,1.3792,1.3,0.5776,3.0,0.9558,True,monoclinic,2/m,14,14.0692,3.2942,0.3361
F4 Tl4,2,0.0,0.0,0.0,0.0,0.5,0.0,0.0,0.0,0.0,0.0,0.0,2.36,1.18,1.4,0.7,4.0,2.0,True,orthorhombic,mmm,57,24.3224,7.6254,0.8201
Cs16 Sn16,2,0.0,0.5,0.0,0.0,0.0,0.0,0.0,0.0,0.0,0.0,-1.5,1.17,0.585,1.15,0.575,1.0,0.5,True,tetragonal,4/mmm,142,48.2463,4.33,0.925
P12 Tc8,2,0.0,0.0,0.0,0.0,0.0,0.0,0.0,0.0,0.0,0.4,-0.2,0.29,0.1421,0.35,0.1715,2.0,0.9798,True,triclinic,-1,2,14.5614,6.5895,0.8183
Pu1 Ru2 Si2,3,0.2,0.0,0.0,0.0,0.0,0.0,0.4,0.0,0.2,0.4,0.4,0.92,0.336,0.65,0.2375,6.0,2.1909,True,tetragonal,4/mmm,139,16.8983,9.8721,0.7288
Cl8 Cs6 Np2 O4,4,0.1,0.3,0.0,0.2,0.4,0.0,0.0,0.0,0.1,0.0,-0.0,2.65,1.1522,2.0,0.7941,7.0,2.1932,True,monoclinic,2/m,15,33.8395,3.9724,0.604
H6 Li2 Mg2,3,0.0,0.2,0.2,0.0,0.0,0.0,0.0,0.0,0.0,0.0,0.0,1.22,0.5273,1.25,0.6003,2.0,0.8,True,trigonal,3m,161,9.4492,1.2045,1.0
O28 Pr16 Se12 Si8,4,0.0,0.0,0.0,0.625,0.0,0.25,0.125,0.0,0.25,0.0,-1.0,2.31,0.9493,1.25,0.5,6.0,2.4238,True,tetragonal,4/mmm,141,17.2207,5.8379,1.0
Cu2 Si2 Yb1,3,0.0,0.0,0.0,0.0,0.0,0.2,0.4,0.0,0.2,0.4,-0.2,1.9,0.76,0.65,0.2379,5.0,1.8547,True,tetragonal,4/mmm,139,15.9735,7.408,0.7117
Co10 O44 P12,3,0.0,0.0,0.0,0.6667,0.0,0.0,0.0,0.0,0.0,0.1515,-1.5758,1.56,0.6617,0.75,0.2821,2.0,0.7435,True,monoclinic,2/m,14,12.8154,3.2688,1.2157
Na6 P2 S8,3,0.0,0.375,0.0,0.0,0.0,0.0,0.0,0.0,0.0,0.0,-1.0,1.65,0.771,0.8,0.3873,0.0,0.0,True,tetragonal,-42m,114,22.0259,2.1505,0.9814
B8 Ga6 Pt18,3,0.0,0.0,0.0,0.0,0.0,0.0,0.25,0.0,0.0,0.5625,2.4375,0.47,0.1841,0.5,0.2119,4.0,1.691,True,hexagonal,-6m2,190,13.7854,15.1186,1.338
Eu2 Sn4 Zn4,3,0.0,0.0,0.0,0.0,0.0,0.2,0.0,0.0,0.2,0.4,-0.4,1.96,0.7352,0.5,0.1855,4.0,1.4697,True,tetragonal,4/mmm,129,24.3842,7.0851,0.4071
Ba2 Hg2 Sn2,3,0.0,0.0,0.3333,0.0,0.0,0.0,0.0,0.0,0.0,0.3333,-0.3333,1.11,0.5141,0.7,0.3189,1.0,0.4714,True,hexagonal,6/mmm,194,35.2285,7.1746,0.5159
Na1 O3,2,0.0,0.25,0.0,0.75,0.0,0.0,0.0,0.0,0.0,0.0,-1.25,2.51,1.0869,1.2,0.5196,1.0,0.433,True,orthorhombic,mm2,44,13.9181,2.1174,0.8433
Fe4 Mn2 O8,3,0.0,0.0,0.0,0.5714,0.0,0.0,0.0,0.0,0.0,0.4286,-0.2857,1.89,0.8473,0.8,0.3959,2.0,0.9897,True,cubic,m-3m,227,11.7178,4.6689,1.0
Ho10 Sb6,2,0.0,0.0,0.0,0.0,0.0,0.625,0.375,0.0,0.625,0.0,0.75,0.82,0.397,0.3,0.1452,3.0,1.4524,True,hexagonal,6/mmm,193,27.1855,9.0854,1.4246
Cl2 O4 Pb2 Sb2,4,0.0,0.0,0.0,0.4,0.2,0.0,0.2,0.0,0.0,0.0,-1.2,1.39,0.5826,1.2,0.4737,4.0,1.6248,True,orthorhombic,mmm,63,19.6454,6.7014,0.7982
Ir4 Np2 Si4,3,0.2,0.0,0.0,0.0,0.0,0.0,0.4,0.0,0.2,0.4,0.6,0.84,0.3069,0.65,0.2379,6.0,2.245,True,tetragonal,4/mmm,129,16.9091,13.3087,0.4172
K6 Si2 Te6,3,0.0,0.4286,0.0,0.4286,0.0,0.0,0.5714,0.0,0.0,0.0,-1.0,1.28,0.6122,1.1,0.444,2.0,0.6999,True,monoclinic,2/m,12,38.8109,3.2283,0.9469
Al16 Ba8 O32,3,0.0,0.0,0.1429,0.5714,0.0,0.0,0.0,0.0,0.0,0.0,0.0,2.55,1.0482,1.55,0.546,4.0,1.3553,True,hexagonal,6,173,15.3754,3.9387,1.1928
Li56 N32 V8,3,0.0,0.5833,0.0,0.0,0.0,0.0,0.0,0.0,0.0,0.0833,0.0,2.06,0.9492,0.8,0.3722,2.0,0.5528,True,cubic,m-3,205,9.2335,2.3312,1.0
Ba8 Si4,2,0.0,0.0,0.6667,0.0,0.0,0.0,0.3333,0.0,0.0,0.0,0.0,1.01,0.4761,1.05,0.495,3.0,1.4142,True,orthorhombic,mmm,62,39.1647,4.2786,0.5326
Cl4 F4 Sn4,3,0.0,0.0,0.0,0.0,0.6667,0.0,0.0,0.0,0.0,0.0,-2.0,2.02,0.8295,0.95,0.388,3.0,1.2472,True,orthorhombic,mmm,62,24.4372,3.9222,0.4196
Ag3 As3 Ca3,3,0.0,0.0,0.3333,0.0,0.0,0.0,0.3333,0.0,0.0,0.3333,-0.0,1.18,0.5077,0.65,0.2718,1.0,0.4714,True,hexagonal,-6m2,189,21.9112,5.63,1.6849
S4 Te4 U4,3,0.3333,0.0,0.0,0.3333,0.0,0.0,0.3333,0.0,0.3333,0.0,0.6667,1.2,0.4932,0.75,0.3064,6.0,2.4944,True,orthorhombic,mmm,62,24.1848,9.1019,0.4703
Pr3 Tl1,2,0.0,0.0,0.0,0.0,0.0,0.75,0.0,0.0,0.75,0.0,2.5,0.49,0.2122,0.05,0.0217,2.0,0.866,True,cubic,m-3m,221,32.0131,8.1321,1.0
As4 Nd2 Ni4,3,0.0,0.0,0.0,0.0,0.0,0.2,0.4,0.0,0.2,0.4,0.2,1.04,0.3816,0.7,0.2561,4.0,1.6,True,tetragonal,4/mmm,129,16.7875,8.1402,0.4441
La2 Pd6 S8,3,0.0,0.0,0.0,0.0,0.0,0.125,0.0,0.0,0.125,0.5,0.125,1.48,0.4698,0.95,0.3172,5.0,1.6536,True,cubic,m-3m,223,19.6243,6.2026,1.0
Mn1 Ni2 Sn1,3,0.0,0.0,0.0,0.0,0.0,0.0,0.0,0.0,0.0,0.75,0.5,0.41,0.1644,0.1,0.0415,1.0,0.433,True,cubic,m-3m,225,13.837,8.7316,1.0
P4 S12 Sr4,3,0.0,0.0,0.2,0.0,0.0,0.0,0.0,0.0,0.0,0.0,-1.4,1.63,0.6313,1.0,0.4,2.0,0.8,True,monoclinic,2/m,14,24.7381,2.8835,0.7149
Ce4 Co2 Si6,3,0.0,0.0,0.0,0.0,0.0,0.3333,0.5,0.0,0.3333,0.1667,-0.6667,0.78,0.3654,0.75,0.3359,5.0,2.2669,True,hexagonal,6/mmm,191,19.1494,6.1195,1.9574
Mn2 S8 Yb4,3,0.0,0.0,0.0,0.0,0.0,0.2857,0.0,0.0,0.2857,0.1429,0.0,2.58,1.1276,0.75,0.3315,5.0,2.1946,True,cubic,m-3m,227,23.0824,5.4394,1.0
Cu4 I4,2,0.0,0.0,0.0,0.0,0.5,0.0,0.0,0.0,0.0,0.5,0.5,0.76,0.38,0.05,0.025,1.0,0.5,True,trigonal,3m,160,27.8628,5.6751,1.0
Al4 Ba1,2,0.0,0.0,0.2,0.0,0.0,0.0,0.0,0.0,0.0,0.0,2.8,0.72,0.288,0.9,0.36,3.0,1.2,True,tetragonal,4/mmm,139,23.7782,3.4254,0.7004
Ag8 O28 P8 Zn4,4,0.0,0.0,0.0,0.5833,0.0,0.0,0.0,0.0,0.0,0.25,-1.3333,1.79,0.7324,1.0,0.3908,3.0,1.1426,True,tetragonal,4/mmm,136,13.8105,4.5599,0.7448
P4 Pt4 Sc4,3,0.0,0.0,0.0,0.0,0.0,0.0,0.0,0.0,0.0,0.6667,0.6667,0.92,0.4141,0.6,0.2461,3.0,1.2472,True,orthorhombic,mmm,62,15.9813,9.3866,0.5161
As2 Cr4,2,0.0,0.0,0.0,0.0,0.0,0.0,0.3333,0.0,0.0,0.6667,1.0,0.52,0.2451,0.25,0.1179,0.0,0.0,True,tetragonal,4/mmm,129,13.367,7.4086,0.5629
Na8 O6 Sn2,3,0.0,0.5,0.0,0.375,0.0,0.0,0.0,0.0,0.0,0.0,-0.75,2.51,1.162,1.2,0.5581,3.0,0.927,True,monoclinic,m,9,17.3089,3.1019,0.6585
Lu1 Pt3,2,0.0,0.0,0.0,0.0,0.0,0.25,0.0,0.0,0.25,0.75,2.25,1.01,0.4373,0.4,0.1732,0.0,0.0,True,cubic,m-3m,221,16.9525,18.6164,1.0
S4 Se4 U4,3,0.3333,0.0,0.0,0.3333,0.0,0.0,0.0,0.0,0.3333,0.0,0.6667,1.2,0.5587,0.75,0.324,6.0,2.6247,True,orthorhombic,mmm,62,21.5605,8.9611,0.4707
Na6 S6,2,0.0,0.5,0.0,0.0,0.0,0.0,0.0,0.0,0.0,0.0,-0.5,1.65,0.825,0.8,0.4,0.0,0.0,True,hexagonal,-6m2,189,22.9776,1.9893,1.4255
Cs2 Cu1 F6 K1,4,0.0,0.3,0.0,0.0,0.6,0.0,0.0,0.0,0.0,0.1,-0.1,3.19,1.4547,2.1,0.8875,4.0,1.6,True,cubic,m-3m,225,18.9632,4.2246,1.0
Al1 F4 Rb1,3,0.0,0.1667,0.0,0.0,0.6667,0.0,0.0,0.0,0.0,0.0,0.0,3.16,1.3232,1.85,0.6902,3.0,1.1055,True,tetragonal,4/mmm,123,14.7103,3.5453,0.5803
Ba2 Co4 O10 Y2,4,0.0,0.0,0.1111,0.5556,0.0,0.0,0.0,0.0,0.0,0.3333,-0.1111,2.55,1.021,1.55,0.5735,4.0,1.4741,True,orthorhombic,mmm,51,13.079,5.9827,0.4883
B3 F12 Li3,3,0.0,0.1667,0.0,0.0,0.6667,0.0,0.1667,0.0,0.0,0.0,0.0,3.0,1.2039,0.95,0.352,0.0,0.0,True,trigonal,32,152,13.4839,1.9241,0.4446
Ni1 O4 Pr2,3,0.0,0.0,0.0,0.5714,0.0,0.2857,0.0,0.0,0.2857,0.1429,0.0,2.31,1.0427,1.25,0.5579,6.0,2.6186,True,tetragonal,4/mmm,139,13.3932,7.1646,0.5708
Li4 O32 P8 V4,4,0.0,0.0833,0.0,0.6667,0.0,0.0,0.0,0.0,0.0,0.0833,-1.3333,2.46,0.8482,0.85,0.3062,2.0,0.6236,True,monoclinic,2/m,14,13.7731,2.4899,1.2211
Ge4 U2,2,0.3333,0.0,0.0,0.0,0.0,0.0,0.6667,0.0,0.3333,0.0,-0.6667,0.63,0.297,0.5,0.2357,5.0,2.357,True,orthorhombic,mmm,63,20.7479,10.2259,0.5121
K2 Pt4 S6,3,0.0,0.1667,0.0,0.0,0.0,0.0,0.0,0.0,0.0,0.3333,-0.1667,1.76,0.6257,1.2,0.4249,3.0,1.3437,True,trigonal,-3m,166,24.1216,6.0288,1.0
Al6 Ru2 Sc4,3,0.0,0.0,0.0,0.0,0.0,0.0,0.0,0.0,0.0,0.5,3.0,0.84,0.2804,0.35,0.1601,2.0,0.7454,True,hexagonal,6/mmm,194,17.3765,4.331,0.62
Er6 K18 O42 Si12,4,0.0,0.2308,0.0,0.5385,0.0,0.0769,0.1538,0.0,0.0769,0.0,-1.2308,2.62,1.14,1.6,0.6672,6.0,1.639,True,hexagonal,6/mmm,193,15.7378,3.6744,0.6864
O2 Zr4,2,0.0,0.0,0.0,0.3333,0.0,0.0,0.0,0.0,0.0,0.6667,2.0,2.11,0.9947,0.95,0.4478,3.0,1.4142,True,cubic,m-3m,224,19.3256,5.6838,1.0
Co8 K36 S28,3,0.0,0.5,0.0,0.0,0.0,0.0,0.0,0.0,0.0,0.1111,-0.0556,1.76,0.8282,1.2,0.5705,1.0,0.4875,True,cubic,23,198,29.3551,2.1816,1.0
K2 Lu2 O16 W4,4,0.0,0.0833,0.0,0.6667,0.0,0.0833,0.0,0.0,0.0833,0.1667,-0.3333,2.62,0.9074,1.6,0.5402,4.0,1.724,True,monoclinic,2/m,15,13.5211,7.2637,1.025
O18 Re4 V2,3,0.0,0.0,0.0,0.75,0.0,0.0,0.0,0.0,0.0,0.25,-0.4167,1.81,0.7087,0.75,0.3248,4.0,1.5184,True,orthorhombic,mm2,36,16.7779,4.6793,0.6362
B2 Co3 Gd1,3,0.0,0.0,0.0,0.0,0.0,0.1667,0.3333,0.0,0.1667,0.5,2.5,0.84,0.2864,0.95,0.3297,6.0,2.0,True,hexagonal,6/mmm,191,10.9631,8.9787,1.6661
Ag2 Ce2 Ge2,3,0.0,0.0,0.0,0.0,0.0,0.3333,0.3333,0.0,0.3333,0.3333,0.0,0.89,0.402,0.6,0.2461,4.0,1.6997,True,hexagonal,6mm,186,22.8356,7.7716,0.6052
Al8 Ba4 O32 Si8,4,0.0,0.0,0.0769,0.6154,0.0,0.0,0.1538,0.0,0.0,0.0,-1.2308,2.55,0.9325,1.55,0.4478,4.0,1.0769,True,monoclinic,2/m,15,14.6995,3.2626,0.9274
Ba6 Mg2 O18 Ru4,4,0.0,0.0,0.2667,0.6,0.0,0.0,0.0,0.0,0.0,0.1333,-0.2667,2.55,1.0677,1.55,0.6206,4.0,1.6918,True,hexagonal,6/mmm,194,13.9817,6.195,0.4146
Hg3 S3,2,0.0,0.0,0.0,0.0,0.0,0.0,0.0,0.0,0.0,0.5,-0.5,0.58,0.29,0.5,0.25,3.0,1.5,True,trigonal,32,154,27.6143,6.9952,0.4546
Hg4 O4,2,0.0,0.0,0.0,0.5,0.0,0.0,0.0,0.0,0.0,0.5,-0.5,1.44,0.72,0.9,0.45,4.0,2.0,True,orthorhombic,mmm,62,18.2583,9.8491,0.5548
Br16 In4 K4,3,0.0,0.1667,0.0,0.0,0.6667,0.0,0.0,0.0,0.0,0.0,0.0,2.14,0.8302,1.05,0.3899,1.0,0.3727,True,orthorhombic,mmm,52,39.5501,3.3136,0.7441
Al4 Cd2 Cl16,3,0.0,0.0,0.0,0.0,0.7273,0.0,0.0,0.0,0.0,0.0909,0.0,1.55,0.6787,0.55,0.1725,2.0,0.575,True,monoclinic,m,7,30.7132,2.2118,0.5372
Ag3 Si3 Yb3,3,0.0,0.0,0.0,0.0,0.0,0.3333,0.3333,0.0,0.3333,0.3333,0.0,1.93,0.9028,0.65,0.2779,5.0,2.0548,True,hexagonal,-6m2,189,20.611,8.2981,1.5887
Ba2 Ho1 O6 Ta1,4,0.0,0.0,0.2,0.6,0.0,0.1,0.0,0.0,0.1,0.1,0.0,2.55,1.1444,1.55,0.6518,6.0,2.2716,True,cubic,m-3m,225,15.4578,7.6972,1.0
Sn6 Th10,2,0.625,0.0,0.0,0.0,0.0,0.0,0.0,0.0,0.625,0.0,1.0,0.66,0.3195,0.35,0.1694,4.0,1.9365,True,hexagonal,6/mmm,193,31.1532,10.1029,1.4607
Fe5 H2 La1,3,0.0,0.0,0.0,0.0,0.0,0.125,0.0,0.0,0.125,0.75,1.375,1.1,0.3175,1.7,0.5662,7.0,2.0463,True,orthorhombic,mmm,65,12.0633,7.2292,0.7997
Ba2 O28 P8 Ti4,4,0.0,0.0,0.0476,0.6667,0.0,0.0,0.0,0.0,0.0,0.0952,-1.4286,2.55,0.8118,1.55,0.3933,4.0,1.0034,True,monoclinic,2/m,15,13.5052,3.4015,0.7597
Na8 O20 Si8,3,0.0,0.2222,0.0,0.5556,0.0,0.0,0.2222,0.0,0.0,0.0,-1.7778,2.51,1.0569,1.2,0.4825,1.0,0.4969,True,monoclinic,2/m,14,13.61,2.4693,0.3947
Ag1 Ce1 Mg2,3,0.0,0.0,0.5,0.0,0.0,0.25,0.0,0.0,0.25,0.25,2.0,0.81,0.3059,0.35,0.1431,5.0,2.0463,True,cubic,m-3m,225,23.2199,5.3026,1.0
As8 O28 Ti4,3,0.0,0.0,0.0,0.7,0.0,0.0,0.2,0.0,0.0,0.1,-1.6,1.9,0.6951,0.8,0.2973,2.0,0.9165,True,monoclinic,2/m,14,14.5903,3.5248,0.3968
B2 C1 Ni2 Y1,4,0.0,0.0,0.0,0.0,0.0,0.0,0.3333,0.0,0.0,0.5,1.5,1.33,0.3899,1.1,0.3841,3.0,1.2134,True,tetragonal,4/mmm,139,10.8859,6.0997,0.616
As3 B3 O12,3,0.0,0.0,0.0,0.6667,0.0,0.0,0.3333,0.0,0.0,0.0,-1.3333,1.4,0.6283,0.55,0.2075,2.0,0.7454,True,trigonal,32,152,10.886,3.8066,0.4407
Au2 Ge8 Rb6,3,0.0,0.375,0.0,0.0,0.0,0.0,0.5,0.0,0.0,0.125,-1.25,1.72,0.6494,1.1,0.5238,2.0,0.696,True,orthorhombic,mmm,59,34.6641,4.4546,0.4897
Co2 Sb2,2,0.0,0.0,0.0,0.0,0.0,0.0,0.5,0.0,0.0,0.5,-0.5,0.17,0.085,0.1,0.05,1.0,0.5,True,hexagonal,6/mmm,194,16.9174,8.868,0.7442
Lu4 Mg2 Se8,3,0.0,0.0,0.1429,0.5714,0.0,0.2857,0.0,0.0,0.2857,0.0,0.0,1.28,0.627,0.6,0.2671,3.0,1.0498,True,cubic,m-3m,227,27.3236,5.9912,1.0
Co1 O1,2,0.0,0.0,0.0,0.5,0.0,0.0,0.0,0.0,0.0,0.5,0.0,1.56,0.78,0.75,0.375,2.0,1.0,True,cubic,-43m,216,12.4083,5.0139,1.0
O24 Sm16,2,0.0,0.0,0.0,0.6,0.0,0.4,0.0,0.0,0.4,0.0,0.0,2.27,1.1121,1.25,0.6124,6.0,2.9394,True,cubic,m-3,206,16.6354,6.9618,1.0
Ag8 Sr8,2,0.0,0.0,0.5,0.0,0.0,0.0,0.0,0.0,0.0,0.5,1.5,0.98,0.49,0.4,0.2,0.0,0.0,True,orthorhombic,mmm,62,32.3625,5.0153,0.2927
B1 N1,2,0.0,0.0,0.0,0.0,0.0,0.0,0.5,0.0,0.0,0.0,0.0,1.0,0.5,0.2,0.1,0.0,0.0,True,trigonal,3m,160,10.001,2.0603,1.0
Be1 Rh1,2,0.0,0.0,0.5,0.0,0.0,0.0,0.0,0.0,0.0,0.5,2.5,0.71,0.355,0.3,0.15,3.0,1.5,True,cubic,m-3m,221,10.8167,8.5906,1.0
Br20 K8 U4,3,0.125,0.25,0.0,0.0,0.625,0.0,0.0,0.0,0.125,0.0,0.375,2.14,0.9594,1.05,0.4547,5.0,1.6536,True,orthorhombic,mmm,62,34.1538,4.3499,0.6263
Nd1 Os4 Sb12,3,0.0,0.0,0.0,0.0,0.0,0.0588,0.7059,0.0,0.0588,0.2353,-1.0,1.06,0.2317,0.55,0.1207,3.0,0.7715,True,cubic,m-3,204,24.5839,9.4019,1.0
N25 U16,2,0.3902,0.0,0.0,0.0,0.0,0.0,0.0,0.0,0.3902,0.0,0.5122,1.66,0.8098,1.1,0.5366,7.0,3.4146,True,trigonal,3,146,14.7572,11.4133,0.9966
Ge14 Re6,2,0.0,0.0,0.0,0.0,0.0,0.0,0.7,0.0,0.0,0.3,-1.6,0.11,0.0504,0.1,0.0458,2.0,0.9165,True,orthorhombic,mmm,63,16.5394,10.7136,0.1475
F156 Sb36 Se16,3,0.0,0.0,0.0,0.0769,0.75,0.0,0.1731,0.0,0.0,0.0,-1.4231,1.93,0.7777,0.95,0.3778,3.0,1.1884,True,monoclinic,2/m,14,18.402,3.7355,0.7876
Mn2 P2 S6,3,0.0,0.0,0.0,0.0,0.0,0.0,0.0,0.0,0.0,0.2,-1.4,1.03,0.4024,0.4,0.16,1.0,0.4,True,monoclinic,2/m,12,23.106,2.6175,0.8141
O16 Pr4 Sb4,3,0.0,0.0,0.0,0.6667,0.0,0.1667,0.1667,0.0,0.1667,0.0,-1.3333,2.31,0.9116,1.25,0.5083,6.0,2.2913,True,monoclinic,2/m,14,13.9059,6.5013,0.7191
As8 K8 O40 Sn8,4,0.0,0.125,0.0,0.625,0.0,0.0,0.125,0.0,0.0,0.0,-2.0,2.62,0.9388,1.6,0.5545,3.0,1.1659,True,orthorhombic,mm2,33,16.2763,3.9881,0.4977
Ga1 Pd2 Sc1,3,0.0,0.0,0.0,0.0,0.0,0.0,0.0,0.0,0.0,0.75,2.5,0.84,0.3462,0.3,0.109,1.0,0.5,True,cubic,m-3m,225,16.3662,8.3076,1.0
O32 V16,2,0.0,0.0,0.0,0.6667,0.0,0.0,0.0,0.0,0.0,0.3333,0.3333,1.81,0.8532,0.75,0.3536,2.0,0.9428,True,tetragonal,4/mmm,138,11.7907,3.8936,0.8993
La4 O12 Ti4,3,0.0,0.0,0.0,0.6,0.0,0.2,0.0,0.0,0.2,0.4,0.2,2.34,1.0479,1.35,0.5546,6.0,2.3324,True,orthorhombic,mmm,62,12.5394,6.218,0.7147
Cr4 O14 Tl4,3,0.0,0.0,0.0,0.6364,0.0,0.0,0.0,0.0,0.0,0.1818,-0.5455,1.82,0.866,1.3,0.5271,4.0,1.5641,True,triclinic,-1,2,18.4012,5.1253,0.951
B16 Ba8 Se52,3,0.0,0.0,0.1053,0.6842,0.0,0.0,0.2105,0.0,0.0,0.0,-0.5263,1.66,0.515,1.3,0.3499,4.0,1.104,True,monoclinic,2/m,14,26.1796,4.488,0.9073
Ho2 S4,2,0.0,0.0,0.0,0.0,0.0,0.3333,0.0,0.0,0.3333,0.0,-0.3333,1.35,0.6364,0.75,0.3536,5.0,2.357,True,cubic,m-3m,227,19.6724,6.445,1.0
Ag2 Rb4 Se8 V2,4,0.0,0.25,0.0,0.5,0.0,0.0,0.0,0.0,0.0,0.25,0.0,1.73,0.7152,1.2,0.4949,1.0,0.4841,True,orthorhombic,mmm,70,32.8338,4.0812,0.4789
Au2 Eu2 Sb2,3,0.0,0.0,0.0,0.0,0.0,0.3333,0.3333,0.0,0.3333,0.3333,0.6667,2.54,1.1002,0.5,0.216,3.0,1.2472,True,hexagonal,6/mmm,194,27.1833,9.5843,0.5683
Nd1 Pt5,2,0.0,0.0,0.0,0.0,0.0,0.1667,0.0,0.0,0.1667,0.8333,2.1667,1.14,0.4249,0.5,0.1863,2.0,0.7454,True,hexagonal,6/mmm,191,18.8929,16.4016,1.2223
Mn1 N1,2,0.0,0.0,0.0,0.0,0.0,0.0,0.0,0.0,0.0,0.5,-0.5,1.49,0.745,0.75,0.375,2.0,1.0,True,cubic,m-3m,225,8.853,6.4659,1.0
Al2 H12 K4 Na2,4,0.0,0.3,0.0,0.0,0.0,0.0,0.0,0.0,0.0,0.0,0.0,1.38,0.6029,1.95,0.8275,3.0,1.2649,True,orthorhombic,mmm,58,13.4182,1.661,0.7099
Cu1 N2 Ta1,3,0.0,0.0,0.0,0.0,0.0,0.0,0.0,0.0,0.0,0.5,0.25,1.54,0.6848,0.8,0.3767,4.0,1.6583,True,trigonal,-3m,166,12.5907,8.985,1.0
B4 Cr3,2,0.0,0.0,0.0,0.0,0.0,0.0,0.5714,0.0,0.0,0.4286,3.0,0.38,0.1881,0.55,0.2722,2.0,0.9897,True,monoclinic,2/m,12,8.0024,5.906,0.43
H21 Y10,2,0.0,0.0,0.0,0.0,0.0,0.0,0.0,0.0,0.0,0.3226,0.2903,0.98,0.4581,1.55,0.7246,4.0,1.8699,True,triclinic,-1,2,11.3953,4.2787,0.7554
Ba2 Ni2 O4,3,0.0,0.0,0.25,0.5,0.0,0.0,0.0,0.0,0.0,0.25,0.0,2.55,1.0819,1.55,0.6408,4.0,1.6583,True,orthorhombic,mmm,63,16.2214,5.8354,0.87
Li4 Nb4 O24 U4,4,0.1111,0.1111,0.0,0.6667,0.0,0.0,0.0,0.0,0.1111,0.1111,0.0,2.46,1.0103,1.15,0.4552,7.0,2.2825,True,monoclinic,2/m,14,14.0966,5.6788,0.6229
B36 Na16 Se36,3,0.0,0.1818,0.0,0.4091,0.0,0.0,0.4091,0.0,0.0,0.0,0.5909,1.62,0.5748,0.95,0.3371,2.0,0.9045,True,monoclinic,2/m,14,21.5863,3.1466,0.6756
Ga2 Pt1,2,0.0,0.0,0.0,0.0,0.0,0.0,0.0,0.0,0.0,0.3333,2.6667,0.47,0.2216,0.05,0.0236,2.0,0.9428,True,cubic,m-3m,225,18.0159,10.2779,1.0
Cu1 F4 K2,3,0.0,0.2857,0.0,0.0,0.5714,0.0,0.0,0.0,0.0,0.1429,0.0,3.16,1.4252,1.7,0.7485,2.0,0.9897,True,tetragonal,4/mmm,139,15.9078,3.2469,0.5798
Cr8 Li12 O48 P12,4,0.0,0.15,0.0,0.6,0.0,0.0,0.0,0.0,0.0,0.1,-1.2,2.46,0.9589,0.85,0.3533,2.0,0.6538,True,monoclinic,2/m,13,11.3402,2.9998,0.6904
I2 Nd1,2,0.0,0.0,0.0,0.0,0.6667,0.3333,0.0,0.0,0.3333,0.0,0.3333,1.52,0.7165,0.45,0.2121,3.0,1.4142,True,tetragonal,4/mmm,139,39.4148,5.5899,0.4674
O20 Re4 Sm8,3,0.0,0.0,0.0,0.625,0.0,0.25,0.0,0.0,0.25,0.125,0.0,2.27,1.0035,1.25,0.544,6.0,2.6458,True,tetragonal,4/m,85,13.7758,8.5421,0.67
Al26 S42 Tl6,3,0.0,0.0,0.0,0.0,0.0,0.0,0.0,0.0,0.0,0.0,0.0,0.97,0.4796,0.9,0.2485,3.0,0.8189,True,monoclinic,m,8,23.8732,3.0779,0.6315
Mo4 N2,2,0.0,0.0,0.0,0.0,0.0,0.0,0.0,0.0,0.0,0.6667,1.6667,0.88,0.4148,0.8,0.3771,3.0,1.4142,True,tetragonal,4/mmm,141,12.2465,9.3056,0.8452
B2 Cl28 Zr12,3,0.0,0.0,0.0,0.0,0.6667,0.0,0.0476,0.0,0.0,0.2857,0.619,1.83,0.8274,0.7,0.255,3.0,0.9571,True,orthorhombic,mmm,64,26.3083,3.1694,0.8307
Ca4 S16 Sc8,3,0.0,0.0,0.1429,0.0,0.0,0.0,0.0,0.0,0.0,0.2857,0.0,1.58,0.6724,0.8,0.3356,1.0,0.4949,True,orthorhombic,mmm,62,20.9314,2.9268,0.2767
F4 O4 Sb4,3,0.0,0.0,0.0,0.3333,0.3333,0.0,0.3333,0.0,0.0,0.0,-2.0,1.93,0.813,0.95,0.4262,3.0,1.4142,True,orthorhombic,mmm,62,18.004,4.8193,0.4656
Cu1 Hf1 Hg2,3,0.0,0.0,0.0,0.0,0.0,0.0,0.0,0.0,0.0,1.0,2.0,0.7,0.2915,0.2,0.075,2.0,0.866,True,cubic,-43m,216,18.9739,14.0731,1.0
Al1 Fe3,2,0.0,0.0,0.0,0.0,0.0,0.0,0.0,0.0,0.0,0.75,2.25,0.22,0.0953,0.15,0.065,1.0,0.433,True,cubic,m-3m,225,11.8524,6.813,1.0
La4 Nb28 O48,3,0.0,0.0,0.0,0.6,0.0,0.05,0.0,0.0,0.05,0.4,0.7,2.34,0.9379,1.35,0.4591,6.0,1.7685,True,monoclinic,2/m,14,12.9143,6.3085,0.8532
C1 Lu3 Sn1,3,0.0,0.0,0.0,0.0,0.0,0.6,0.0,0.0,0.6,0.0,0.2,1.28,0.5174,1.05,0.4069,4.0,1.5492,True,cubic,m-3m,221,21.5274,10.1144,1.0
Se2 Si2 Zr2,3,0.0,0.0,0.0,0.3333,0.0,0.0,0.3333,0.0,0.0,0.3333,-0.6667,1.22,0.4984,0.45,0.2014,2.0,0.8165,True,tetragonal,4/mmm,129,18.9153,5.8019,0.4169
Br6 U2,2,0.25,0.0,0.0,0.0,0.75,0.0,0.0,0.0,0.25,0.0,0.75,1.58,0.6842,0.6,0.2598,5.0,2.1651,True,hexagonal,6/m,176,30.8852,6.4214,1.824
Co2 Na8 O6,3,0.0,0.5,0.0,0.375,0.0,0.0,0.0,0.0,0.0,0.125,0.0,2.51,1.1626,1.2,0.5559,2.0,0.6614,True,monoclinic,m,9,15.1207,2.7302,0.7047
Dy8 Ge4 O20,3,0.0,0.0,0.0,0.625,0.0,0.25,0.125,0.0,0.25,0.0,-1.0,2.22,0.9743,1.15,0.4975,6.0,2.5372,True,monoclinic,2/m,15,14.4943,6.8401,0.7043
H2 Na2 O2,3,0.0,0.3333,0.0,0.3333,0.0,0.0,0.0,0.0,0.0,0.0,-0.6667,2.51,1.0247,1.55,0.6637,2.0,0.8165,True,orthorhombic,mmm,63,11.3028,1.9587,0.5673
Cd4 O12 Ti4,3,0.0,0.0,0.0,0.6,0.0,0.0,0.0,0.0,0.0,0.4,0.0,1.9,0.8953,0.95,0.4313,3.0,1.2649,True,orthorhombic,mm2,26,11.4722,6.0294,0.7021
Mn6 Ni16 Si7,3,0.0,0.0,0.0,0.0,0.0,0.0,0.2414,0.0,0.0,0.7586,0.5517,0.36,0.1447,0.3,0.1145,1.0,0.4279,True,cubic,m-3m,225,11.7245,7.1563,1.0
Ag1 Ce1,2,0.0,0.0,0.0,0.0,0.0,0.5,0.0,0.0,0.5,0.5,2.0,0.81,0.405,0.25,0.125,3.0,1.5,True,tetragonal,4/mmm,123,23.7956,8.6526,0.6905
Bi6 Br2 Se8,3,0.0,0.0,0.0,0.5,0.125,0.0,0.0,0.0,0.0,0.0,0.0,0.94,0.3234,0.45,0.2179,2.0,0.9682,True,monoclinic,2/m,12,30.4024,6.9822,0.3381
Cu5 O10 P2,3,0.0,0.0,0.0,0.5882,0.0,0.0,0.0,0.0,0.0,0.2941,-0.9412,1.54,0.722,0.75,0.3356,2.0,0.8921,True,triclinic,-1,2,11.9278,4.4195,0.6911
K2 O12 Os4,3,0.0,0.1111,0.0,0.6667,0.0,0.0,0.0,0.0,0.0,0.2222,-0.3333,2.62,0.885,1.6,0.5312,4.0,1.663,True,cubic,m-3m,227,14.8323,6.4132,1.0
O14 Sb4 Sr4,3,0.0,0.0,0.1818,0.6364,0.0,0.0,0.1818,0.0,0.0,0.0,-1.4545,2.49,0.9904,1.4,0.566,3.0,1.4431,True,orthorhombic,mmm,74,14.1289,5.6708,1.0009
F6 K2 Na1 Y1,4,0.0,0.3,0.0,0.0,0.6,0.0,0.0,0.0,0.0,0.1,0.0,3.16,1.4892,1.7,0.7457,3.0,1.077,True,cubic,m-3m,225,17.6552,2.86,1.0
Al2 Si4 Yb4,3,0.0,0.0,0.0,0.0,0.0,0.4,0.4,0.0,0.4,0.0,0.2,1.9,0.8898,0.65,0.299,5.0,2.4495,True,tetragonal,4/mmm,127,21.2617,6.7046,0.6719