formula,numberOfSpecies,fracActinoid,fracAlkali,fracAlkaline,fracChalcogen,fracHalogen,fracLanthanoid,fracMetalloid,fracNobleGas,fracRareEarth,fracTransitionMetal,electronsPerAtom,electronegativityRange,electronegativityStd,radiiRange,radiiStd,rowRange,rowStd,ordered,crystalSystem,pointGroup,spaceGroupNumber,volumePerSite,density,c_a
Mn3 N1 Zn1,3,0.0,0.0,0.0,0.0,0.0,0.0,0.0,0.0,0.0,0.8,1.0,1.49,0.5873,0.75,0.2956,2.0,0.8,True,cubic,m-3m,221,10.8911,7.4475,1.0
C8 I36 Y20,3,0.0,0.0,0.0,0.0,0.5625,0.0,0.0,0.0,0.0,0.3125,-0.125,1.44,0.6591,1.1,0.3314,3.0,0.9922,True,monoclinic,2/m,14,36.3961,4.5929,0.6253
Ga18 Ir4,2,0.0,0.0,0.0,0.0,0.0,0.0,0.0,0.0,0.0,0.1818,3.0,0.39,0.1504,0.05,0.0193,2.0,0.7714,True,monoclinic,m,7,17.0202,8.9753,0.7231
B4 Fe4 O16 Pb4,4,0.0,0.0,0.0,0.5714,0.0,0.0,0.1429,0.0,0.0,0.1429,-0.1429,1.61,0.6927,1.2,0.4503,4.0,1.4569,True,orthorhombic,mmm,62,13.0899,6.1227,0.7159
B4 La4 O12,3,0.0,0.0,0.0,0.6,0.0,0.2,0.2,0.0,0.2,0.2,0.0,2.34,0.9631,1.35,0.524,6.0,2.4,True,orthorhombic,mmm,62,12.6246,5.2012,0.6205
Ba3 O9 Sr1 Ta2,4,0.0,0.0,0.2667,0.6,0.0,0.0,0.0,0.0,0.0,0.1333,0.0,2.55,1.1585,1.55,0.6637,4.0,1.8927,True,trigonal,-3m,164,16.0726,6.9255,0.7844
Ba4 O16 Sm8,3,0.0,0.0,0.1429,0.5714,0.0,0.2857,0.0,0.0,0.2857,0.0,0.0,2.55,1.1727,1.55,0.6745,6.0,2.7105,True,orthorhombic,mmm,62,16.9908,7.0094,0.2871
Al4 Cl16 K4,3,0.0,0.1667,0.0,0.0,0.6667,0.0,0.0,0.0,0.0,0.0,0.0,2.34,0.9448,1.2,0.4382,1.0,0.3727,True,monoclinic,2,4,30.9403,1.8596,0.6845
Co6 O16 U4,3,0.1538,0.0,0.0,0.6154,0.0,0.0,0.0,0.0,0.1538,0.2308,0.1538,2.06,0.8696,1.15,0.4591,7.0,2.4687,True,orthorhombic,mmm,58,12.6751,7.869,0.4961
Au3 Er3 In3,3,0.0,0.0,0.0,0.0,0.0,0.3333,0.0,0.0,0.3333,0.3333,3.0,1.3,0.5332,0.4,0.1633,3.0,1.2472,True,hexagonal,-6m2,189,22.9182,11.5697,1.9188
Ga4 O16 Ta4,3,0.0,0.0,0.0,0.6667,0.0,0.0,0.0,0.0,0.0,0.1667,0.0,1.94,0.8462,0.85,0.3679,4.0,1.5275,True,orthorhombic,mm2,33,11.0266,7.8978,1.6621
Al2 Ba1 Ge2,3,0.0,0.0,0.2,0.0,0.0,0.0,0.4,0.0,0.0,0.0,0.0,1.12,0.4092,0.9,0.36,3.0,1.0954,True,tetragonal,4/mmm,139,24.0972,4.6386,0.5861
H4 N4 S28,3,0.0,0.0,0.0,0.0,0.0,0.0,0.0,0.0,0.0,0.0,-2.0,0.84,0.1987,0.75,0.2473,2.0,0.6667,True,orthorhombic,mmm,62,26.6182,1.6599,0.5857
H32 N8 O40 Zn4,4,0.0,0.0,0.0,0.4762,0.0,0.0,0.0,0.0,0.0,0.0476,-1.5238,1.79,0.6314,1.1,0.2551,3.0,0.6999,True,monoclinic,2/m,14,9.3673,2.2073,0.1972
Ba6 Cr2 O10,3,0.0,0.0,0.3333,0.5556,0.0,0.0,0.0,0.0,0.0,0.1111,-0.1111,2.55,1.1924,1.55,0.7108,4.0,1.8325,True,tetragonal,4/mmm,140,18.0042,5.5746,1.0
Co6 Si10 U4,3,0.2,0.0,0.0,0.0,0.0,0.0,0.5,0.0,0.2,0.3,-0.2,0.52,0.2052,0.65,0.2474,6.0,2.2913,True,orthorhombic,mmm,72,14.7773,8.9142,0.7121
Ba2 In4 Ir2,3,0.0,0.0,0.25,0.0,0.0,0.0,0.0,0.0,0.0,0.25,2.75,1.31,0.4778,0.8,0.3,1.0,0.5,True,orthorhombic,mmm,63,27.0218,8.5907,0.5453
Ca4 O16 Sc8,3,0.0,0.0,0.1429,0.5714,0.0,0.0,0.0,0.0,0.0,0.2857,0.0,2.44,1.0944,1.2,0.5315,2.0,0.9897,True,orthorhombic,mmm,62,12.0497,3.819,0.2827
B2 Ce1 Co3,3,0.0,0.0,0.0,0.0,0.0,0.1667,0.3333,0.0,0.1667,0.5,2.5,0.92,0.3153,1.0,0.3436,6.0,2.0,True,hexagonal,6/mmm,191,11.0718,8.4623,1.6677
La4 O12 S2,3,0.0,0.0,0.0,0.6667,0.0,0.2222,0.0,0.0,0.2222,0.2222,-0.8889,2.34,0.9592,1.35,0.5515,6.0,2.4545,True,monoclinic,2/m,15,14.0029,5.3478,0.5109
Ba4 O16 Si4 Ti2,4,0.0,0.0,0.1538,0.6154,0.0,0.0,0.1538,0.0,0.0,0.0769,-1.2308,2.55,1.0206,1.55,0.5615,4.0,1.4391,True,tetragonal,4mm,100,15.255,4.2426,0.6171
P2 S6 Sn1,3,0.0,0.0,0.0,0.0,0.0,0.0,0.0,0.0,0.0,0.0,-2.4444,0.62,0.2287,0.45,0.1414,2.0,0.6285,True,trigonal,3,146,25.1167,2.7404,1.0
Nd2 Pt2 Sb2,3,0.0,0.0,0.0,0.0,0.0,0.3333,0.3333,0.0,0.3333,0.3333,0.6667,1.14,0.4922,0.5,0.216,3.0,1.2472,True,hexagonal,6mm,186,24.5458,10.3976,0.5682
Al1 Sc1,2,0.0,0.0,0.0,0.0,0.0,0.0,0.0,0.0,0.0,0.5,3.0,0.25,0.125,0.35,0.175,1.0,0.5,True,cubic,m-3m,221,19.2693,3.0996,1.0
Br6 W1,2,0.0,0.0,0.0,0.0,0.8571,0.0,0.0,0.0,0.0,0.1429,-0.2857,0.6,0.21,0.2,0.07,2.0,0.6999,True,trigonal,-3,148,35.2171,4.4677,1.0
Al4 Na12 Se12,3,0.0,0.4286,0.0,0.4286,0.0,0.0,0.0,0.0,0.0,0.0,0.0,1.62,0.7513,0.65,0.311,1.0,0.4949,True,monoclinic,2/m,14,26.2066,3.0128,0.5493
In4 Se24 Sm12,3,0.0,0.0,0.0,0.6,0.0,0.3,0.0,0.0,0.3,0.0,0.0,1.38,0.6241,0.7,0.317,4.0,1.7916,True,orthorhombic,mmm,58,25.823,6.6855,0.2332
Ca4 Ga2 Mn2 O10,4,0.0,0.0,0.2222,0.5556,0.0,0.0,0.0,0.0,0.0,0.1111,-0.1111,2.44,1.0696,1.2,0.5077,2.0,0.9938,True,orthorhombic,mm2,46,12.7251,4.1296,0.6345
F24 K8 O12 Ta8,4,0.0,0.1538,0.0,0.2308,0.4615,0.0,0.0,0.0,0.0,0.1538,0.0,3.16,1.251,1.7,0.6326,4.0,1.4916,True,orthorhombic,mmm,62,16.8413,4.5665,0.3847
I6 La6 Ru2,3,0.0,0.0,0.0,0.0,0.4286,0.4286,0.0,0.0,0.4286,0.5714,1.2857,1.56,0.7308,0.65,0.2864,3.0,1.4846,True,monoclinic,2/m,11,37.9351,5.6186,0.3486
Ag2 Hg1 I4,3,0.0,0.0,0.0,0.0,0.5714,0.0,0.0,0.0,0.0,0.4286,-0.1429,0.73,0.3504,0.2,0.0881,1.0,0.3499,True,NA,NA,-1,173.93,1.2601,0.0614
Br1 Cu1,2,0.0,0.0,0.0,0.0,0.5,0.0,0.0,0.0,0.0,0.5,0.5,1.06,0.53,0.2,0.1,0.0,0.0,True,cubic,-43m,216,23.1371,5.1477,1.0
Co4 H24 K4 N24 O32,5,0.0,0.0455,0.0,0.3636,0.0,0.0,0.0,0.0,0.0,0.0455,-1.6818,2.62,0.6925,1.95,0.4188,3.0,0.7925,True,orthorhombic,222,19,11.5693,2.0624,0.5256
Ge4 Tm2,2,0.0,0.0,0.0,0.0,0.0,0.3333,0.6667,0.0,0.3333,0.0,-1.6667,0.76,0.3583,0.5,0.2357,4.0,1.8856,True,orthorhombic,mmm,63,20.7388,8.3863,0.479
Ca1 O6 Ta2,3,0.0,0.0,0.1111,0.6667,0.0,0.0,0.0,0.0,0.0,0.2222,0.0,2.44,1.0024,1.2,0.4655,4.0,1.663,True,cubic,m-3m,225,13.8714,6.6235,1.4142
Ba2 La1 O6 Ru1,4,0.0,0.0,0.2,0.6,0.0,0.1,0.0,0.0,0.1,0.2,-0.2,2.55,1.1173,1.55,0.6682,6.0,2.1932,True,trigonal,-3,148,16.1345,6.2845,1.0
Ca2 Ge2 Zn2,3,0.0,0.0,0.3333,0.0,0.0,0.0,0.3333,0.0,0.0,0.3333,0.0,1.01,0.418,0.55,0.2392,0.0,0.0,True,hexagonal,6/mmm,194,22.1668,4.4479,0.5242
O10 Ru3 Sr2,3,0.0,0.0,0.1333,0.6667,0.0,0.0,0.0,0.0,0.0,0.2,-0.4667,2.49,0.8932,1.4,0.5026,3.0,1.4142,True,monoclinic,2/m,12,13.8229,5.1131,0.8397
Ni4 Sb4 Zr4,3,0.0,0.0,0.0,0.0,0.0,0.0,0.3333,0.0,0.0,0.6667,1.0,0.72,0.3117,0.2,0.0816,1.0,0.4714,True,orthorhombic,mmm,62,18.1131,8.3021,0.5485
B6 Ta5,2,0.0,0.0,0.0,0.0,0.0,0.0,0.5455,0.0,0.0,0.4545,3.9091,0.54,0.2689,0.6,0.2988,4.0,1.9917,True,orthorhombic,mmm,65,10.8014,13.551,0.2752
As2 Cs4 Li2 O8,4,0.0,0.375,0.0,0.5,0.0,0.0,0.125,0.0,0.0,0.0,-1.0,2.65,1.1997,2.0,0.8201,4.0,1.7139,True,orthorhombic,mm2,36,19.8495,4.3049,0.7285
Cl12 Fe2 Zr2,3,0.0,0.0,0.0,0.0,0.75,0.0,0.0,0.0,0.0,0.25,0.0,1.83,0.6955,0.55,0.2091,2.0,0.696,True,trigonal,-3m,163,29.2439,2.5537,0.4771
B2 U1,2,0.3333,0.0,0.0,0.0,0.0,0.0,0.6667,0.0,0.3333,0.0,4.0,0.66,0.3111,0.9,0.4243,7.0,3.2998,True,hexagonal,6/mmm,191,11.0225,13.0388,0.7671
La4 Mn8 O20,3,0.0,0.0,0.0,0.625,0.0,0.125,0.0,0.0,0.125,0.375,-0.375,2.34,0.9961,1.35,0.5018,6.0,1.9843,True,orthorhombic,mmm,55,12.4497,5.4815,0.6642
Mn1 O24 P6 Ti4,4,0.0,0.0,0.0,0.6857,0.0,0.0,0.0,0.0,0.0,0.1429,-1.3714,1.9,0.7395,0.8,0.2923,2.0,0.7307,True,trigonal,-3,148,13.1106,2.9537,1.0
Mg12 Pr1,2,0.0,0.0,0.9231,0.0,0.0,0.0769,0.0,0.0,0.0769,0.0,2.0769,0.18,0.048,0.35,0.0933,5.0,1.3323,True,tetragonal,4/mmm,139,24.1712,2.2859,0.7426
Fe3 Sn3,2,0.0,0.0,0.0,0.0,0.0,0.0,0.0,0.0,0.0,0.5,-1.0,0.13,0.065,0.05,0.025,1.0,0.5,True,hexagonal,6/mmm,191,18.1321,7.9929,1.1883
B32 K8 Li8 O56,4,0.0,0.1538,0.0,0.5385,0.0,0.0,0.3077,0.0,0.0,0.0,0.0,2.62,0.96,1.6,0.4487,2.0,0.5329,True,orthorhombic,222,19,12.0351,2.1363,0.6716
Cu1 Tm1,2,0.0,0.0,0.0,0.0,0.0,0.5,0.0,0.0,0.5,0.5,2.5,0.65,0.325,0.4,0.2,4.0,2.0,True,cubic,m-3m,221,19.9152,9.6922,1.0
Cu3 N1,2,0.0,0.0,0.0,0.0,0.0,0.0,0.0,0.0,0.0,0.75,0.75,1.14,0.4936,0.7,0.3031,2.0,0.866,True,cubic,m-3m,221,10.6225,7.9977,1.0
Rh4 Sb12,2,0.0,0.0,0.0,0.0,0.0,0.0,0.75,0.0,0.0,0.25,-1.5,0.23,0.0996,0.1,0.0433,0.0,0.0,True,cubic,m-3,204,25.7728,7.5413,1.0
Ni3 Tb3 Zn3,3,0.0,0.0,0.0,0.0,0.0,0.3333,0.0,0.0,0.3333,0.6667,2.3333,1.91,0.8458,0.4,0.1886,4.0,1.8856,True,hexagonal,-6m2,189,18.0154,8.6959,1.8595
Hg8 S12 Si2,3,0.0,0.0,0.0,0.0,0.0,0.0,0.0909,0.0,0.0,0.3636,-1.0909,0.68,0.3,0.5,0.2353,3.0,1.4431,True,monoclinic,m,9,24.9167,6.1969,0.5806
As8 Si4 Sr6,3,0.0,0.0,0.3333,0.0,0.0,0.0,0.6667,0.0,0.0,0.0,-1.5556,1.23,0.5466,0.9,0.409,2.0,0.737,True,monoclinic,2/m,15,27.6105,4.1345,0.7696
P12 Ta24,2,0.0,0.0,0.0,0.0,0.0,0.0,0.0,0.0,0.0,0.6667,2.3333,0.69,0.3253,0.45,0.2121,3.0,1.4142,True,orthorhombic,mmm,58,16.0459,13.5522,0.2352
La4 Mg34,2,0.0,0.0,0.8947,0.0,0.0,0.1053,0.0,0.0,0.1053,0.1053,2.1053,0.21,0.0644,0.45,0.1381,5.0,1.5345,True,hexagonal,6/mmm,194,24.8881,2.4265,1.018
Mo2 Na4 O8,3,0.0,0.2857,0.0,0.5714,0.0,0.0,0.0,0.0,0.0,0.1429,-0.2857,2.51,1.1064,1.2,0.5469,3.0,1.0302,True,orthorhombic,mmm,70,15.9551,3.0616,0.8666
Dy1 Se1,2,0.0,0.0,0.0,0.5,0.0,0.5,0.0,0.0,0.5,0.0,0.5,1.33,0.665,0.6,0.3,4.0,2.0,True,cubic,m-3m,225,23.9476,8.3715,1.0
H32 P16 Si4,3,0.0,0.0,0.0,0.0,0.0,0.0,0.0769,0.0,0.0,0.0,-1.8462,0.3,0.0792,0.85,0.3754,2.0,0.973,True,monoclinic,2/m,14,18.5744,1.1006,0.6683
F40 I4 Sb4,3,0.0,0.0,0.0,0.0,0.9167,0.0,0.0833,0.0,0.0,0.0,-1.1667,1.93,0.6183,0.95,0.3449,3.0,1.118,True,orthorhombic,mmm,73,15.7582,3.8519,0.6862
O14 Sn2 Ta4,3,0.0,0.0,0.0,0.7,0.0,0.0,0.0,0.0,0.0,0.2,-0.8,1.94,0.8273,0.85,0.3895,4.0,1.7,True,monoclinic,2/m,15,10.7397,9.1626,0.5681
Cd2 F6 Na2,3,0.0,0.2,0.0,0.0,0.6,0.0,0.0,0.0,0.0,0.2,0.0,3.05,1.3299,1.3,0.581,3.0,1.1662,True,trigonal,3m,161,15.1196,4.226,1.0
Gd4 H8 O36 Rb4 S8,5,0.0,0.0667,0.0,0.6,0.0,0.0667,0.0,0.0,0.0667,0.0,-1.3333,2.62,0.855,2.1,0.5445,7.0,1.7049,True,monoclinic,2/m,14,13.8674,3.6151,0.7696
Au5 Mn2,2,0.0,0.0,0.0,0.0,0.0,0.0,0.0,0.0,0.0,1.0,2.7143,0.99,0.4472,0.05,0.0226,2.0,0.9035,True,monoclinic,2/m,12,17.2255,15.0757,0.5935
Ag1 As1 Zn1,3,0.0,0.0,0.0,0.0,0.0,0.0,0.3333,0.0,0.0,0.6667,-0.0,0.53,0.2165,0.45,0.1841,1.0,0.4714,True,cubic,-43m,216,20.2532,6.7832,1.0
Hg1,1,0.0,0.0,0.0,0.0,0.0,0.0,0.0,0.0,0.0,1.0,1.0,0.0,0.0,0.0,0.0,0.0,0.0,True,trigonal,-3m,166,28.3341,11.7557,1.0
Au8 Ca6,2,0.0,0.0,0.4286,0.0,0.0,0.0,0.0,0.0,0.0,0.5714,2.5714,1.54,0.7621,0.45,0.2227,2.0,0.9897,True,trigonal,-3,148,23.9355,9.0,1.0
Bi1 Li7 O6,3,0.0,0.5,0.0,0.4286,0.0,0.0,0.0,0.0,0.0,0.0,-0.1429,2.46,1.182,1.0,0.4316,4.0,1.0302,True,triclinic,1,1,10.0425,4.1759,0.9144
Ca2 Na4 O24 V8,4,0.0,0.1053,0.0526,0.6316,0.0,0.0,0.0,0.0,0.0,0.2105,-0.0,2.51,1.0333,1.2,0.4745,2.0,0.8712,True,tetragonal,4/mmm,125,14.8231,2.8408,0.4796
I10 Ir1 Y6,3,0.0,0.0,0.0,0.0,0.5882,0.0,0.0,0.0,0.0,0.4118,0.6471,1.44,0.6766,0.45,0.1937,1.0,0.2353,True,triclinic,-1,2,39.3063,4.957,0.7902
F12 K4 Zr2,3,0.0,0.2222,0.0,0.0,0.6667,0.0,0.0,0.0,0.0,0.1111,0.0,3.16,1.4163,1.7,0.7213,3.0,1.1331,True,orthorhombic,mmm,63,15.3312,3.4107,0.9544
As2 Ca2 Rb2,3,0.0,0.3333,0.3333,0.0,0.0,0.0,0.3333,0.0,0.0,0.0,-0.0,1.36,0.6032,1.2,0.4905,1.0,0.4714,True,tetragonal,4/mmm,129,35.796,3.0998,0.6458
Ba1 La1 Mg1 O6 Ru1,5,0.0,0.0,0.2,0.6,0.0,0.1,0.0,0.0,0.1,0.2,-0.2,2.55,1.0597,1.55,0.5916,6.0,2.0591,True,triclinic,1,1,13.0762,6.3191,0.9913
Dy16 O24,2,0.0,0.0,0.0,0.6,0.0,0.4,0.0,0.0,0.4,0.0,0.0,2.22,1.0876,1.15,0.5634,6.0,2.9394,True,cubic,m-3,206,15.2101,8.1443,1.0
Ba4 Ir2 La2 O12,4,0.0,0.0,0.2,0.6,0.0,0.1,0.0,0.0,0.1,0.2,-0.2,2.55,1.1173,1.55,0.6698,6.0,2.2716,True,monoclinic,2/m,14,16.1577,7.2122,0.7122
Mn2 Rb4 S4,3,0.0,0.4,0.0,0.0,0.0,0.0,0.0,0.0,0.0,0.2,0.0,1.76,0.7894,1.35,0.6137,2.0,0.8944,True,orthorhombic,mmm,72,30.5713,3.1504,0.7828
Ba6 Ce2 O18 Ru4,4,0.0,0.0,0.2,0.6,0.0,0.0667,0.0,0.0,0.0667,0.1333,-0.2,2.55,1.0842,1.55,0.6428,6.0,2.0591,True,hexagonal,6/mmm,194,15.2332,6.5276,0.4027
N14 Na2 P8,3,0.0,0.0833,0.0,0.0,0.0,0.0,0.0,0.0,0.0,0.0,-2.6667,2.11,0.6333,1.15,0.3254,1.0,0.493,True,monoclinic,2/m,15,11.2449,3.0141,0.6853
Mo4 O28 Te8,3,0.0,0.0,0.0,0.9,0.0,0.0,0.2,0.0,0.0,0.1,-1.4,1.34,0.6051,0.85,0.3745,3.0,1.3748,True,monoclinic,2/m,14,16.0978,4.7774,0.2734
Co16 Sn8 Y6,3,0.0,0.0,0.0,0.0,0.0,0.0,0.0,0.0,0.0,0.7333,0.6,0.74,0.2767,0.45,0.1719,1.0,0.4989,True,hexagonal,6mm,186,17.126,7.841,1.1982
S56,1,0.0,0.0,0.0,0.0,0.0,0.0,0.0,0.0,0.0,0.0,-2.0,0.0,0.0,0.0,0.0,0.0,0.0,True,monoclinic,2/m,14,33.0992,1.6087,0.3998
Ba2 Si46,2,0.0,0.0,0.0417,0.0,0.0,0.0,0.9583,0.0,0.0,0.0,-3.75,1.01,0.2018,1.05,0.2098,3.0,0.5995,True,cubic,m-3m,223,22.6086,2.3971,1.0
B4 Nb3,2,0.0,0.0,0.0,0.0,0.0,0.0,0.5714,0.0,0.0,0.4286,3.8571,0.44,0.2177,0.6,0.2969,3.0,1.4846,True,orthorhombic,mmm,71,10.6067,7.2008,0.4235
Ga1 Rh1,2,0.0,0.0,0.0,0.0,0.0,0.0,0.0,0.0,0.0,0.5,3.0,0.47,0.235,0.05,0.025,1.0,0.5,True,cubic,m-3m,221,14.0858,10.1754,1.0
Li10 N8 Re2,3,0.0,0.5,0.0,0.0,0.0,0.0,0.0,0.0,0.0,0.1,-0.3,2.06,0.9711,0.8,0.3848,4.0,1.2,True,orthorhombic,mmm,59,11.0958,4.1445,0.7288
N12 Ni12 Sr12,3,0.0,0.0,0.3333,0.0,0.0,0.0,0.0,0.0,0.0,0.3333,0.3333,2.09,0.8542,1.35,0.5513,3.0,1.2472,True,orthorhombic,mmm,62,17.6019,5.0414,0.3931
Nb2 P2 Se2,3,0.0,0.0,0.0,0.3333,0.0,0.0,0.0,0.0,0.0,0.3333,-0.0,0.95,0.3916,0.45,0.1871,2.0,0.8165,True,orthorhombic,mmm,71,17.7572,6.3228,0.499
Ca1 Mg2 Sb2,3,0.0,0.0,0.6,0.0,0.0,0.0,0.4,0.0,0.0,0.0,-0.0,1.05,0.4284,0.35,0.1319,2.0,0.8944,True,trigonal,-3m,164,28.9402,3.8123,0.6186
Fe3 Si1,2,0.0,0.0,0.0,0.0,0.0,0.0,0.25,0.0,0.0,0.75,0.5,0.07,0.0303,0.3,0.1299,1.0,0.433,True,cubic,m-3m,225,11.0252,7.3657,1.0
N2 Te1 U2,3,0.4,0.0,0.0,0.2,0.0,0.0,0.2,0.0,0.4,0.0,0.8,1.66,0.7437,1.1,0.4984,7.0,3.1369,True,tetragonal,4/mmm,139,19.0509,11.0117,0.5627
K4 O6 Te2,3,0.0,0.3333,0.0,0.6667,0.0,0.0,0.1667,0.0,0.0,0.0,-1.0,2.62,1.1767,1.6,0.718,3.0,1.2134,True,trigonal,-3,147,21.3275,3.2934,0.8891
Mg2 Se8 Tm4,3,0.0,0.0,0.1429,0.5714,0.0,0.2857,0.0,0.0,0.2857,0.0,0.0,1.3,0.6337,0.6,0.2671,5.0,1.9272,True,cubic,m-3m,227,27.7562,5.7947,1.0
B4 F4 Mg8 O12,4,0.0,0.0,0.2857,0.4286,0.1429,0.0,0.1429,0.0,0.0,0.0,-0.0,2.67,1.0406,1.0,0.4052,1.0,0.4518,True,orthorhombic,mmm,62,10.059,2.9813,0.3303
Cd4 Sr2,2,0.0,0.0,0.3333,0.0,0.0,0.0,0.0,0.0,0.0,0.6667,2.0,0.74,0.3488,0.45,0.2121,0.0,0.0,True,orthorhombic,mmm,74,30.0778,5.7498,0.7971
Br10 Te4 Zr2,3,0.0,0.0,0.0,0.25,0.625,0.0,0.25,0.0,0.0,0.125,-0.625,1.63,0.5845,0.4,0.1516,1.0,0.4841,True,monoclinic,2/m,12,39.7868,3.8916,0.9655
Cu3 Sb1,2,0.0,0.0,0.0,0.0,0.0,0.0,0.25,0.0,0.0,0.75,0.75,0.15,0.065,0.1,0.0433,1.0,0.433,True,cubic,m-3m,225,15.083,8.5982,1.0
Sm2 Te6,2,0.0,0.0,0.0,0.75,0.0,0.25,0.75,0.0,0.25,0.0,-0.75,0.93,0.4027,0.45,0.1949,3.0,1.299,True,orthorhombic,mmm,63,32.5852,6.7924,0.3165
Al4 La2,2,0.0,0.0,0.0,0.0,0.0,0.3333,0.0,0.0,0.3333,0.3333,3.0,0.51,0.2404,0.7,0.33,5.0,2.357,True,cubic,m-3m,227,22.4995,4.7448,1.0
Fe4 Sn2 U4,3,0.4,0.0,0.0,0.0,0.0,0.0,0.0,0.0,0.4,0.4,2.4,0.58,0.2463,0.35,0.1643,5.0,2.3152,True,tetragonal,4/mmm,127,17.7559,13.2136,0.4613
Se2 Sn2,2,0.0,0.0,0.0,0.5,0.0,0.0,0.0,0.0,0.0,0.0,-3.0,0.59,0.295,0.3,0.15,1.0,0.5,True,tetragonal,4/mmm,129,56.423,2.9087,0.3577
Fe4 Zr2,2,0.0,0.0,0.0,0.0,0.0,0.0,0.0,0.0,0.0,1.0,2.6667,0.5,0.2357,0.15,0.0707,1.0,0.4714,True,cubic,m-3m,227,14.5998,7.693,1.0
Fe4 Ho2,2,0.0,0.0,0.0,0.0,0.0,0.3333,0.0,0.0,0.3333,0.6667,2.3333,0.6,0.2828,0.35,0.165,4.0,1.8856,True,cubic,m-3m,227,15.7979,9.692,1.0
Sc1 Si2,2,0.0,0.0,0.0,0.0,0.0,0.0,0.6667,0.0,0.0,0.3333,-1.6667,0.54,0.2546,0.5,0.2357,1.0,0.4714,True,hexagonal,6/mmm,191,17.0072,3.2913,1.1218
Co7 Nb6,2,0.0,0.0,0.0,0.0,0.0,0.0,0.0,0.0,0.0,1.0,3.3846,0.28,0.1396,0.1,0.0499,1.0,0.4985,True,trigonal,-3m,166,13.8388,8.953,1.0
Nd2 Zn17,2,0.0,0.0,0.0,0.0,0.0,0.1053,0.0,0.0,0.1053,0.8947,2.1053,0.51,0.1565,0.5,0.1534,4.0,1.2276,True,trigonal,-3m,166,16.592,7.3767,1.0
C2 Li2 O14 P2 Ti2,5,0.0,0.0909,0.0,0.6364,0.0,0.0,0.0,0.0,0.0,0.0909,-1.4545,2.46,0.8621,0.85,0.318,2.0,0.6166,True,monoclinic,2,4,14.0851,2.2484,0.6612
As4 Ni2 Tm4,3,0.0,0.0,0.0,0.0,0.0,0.4,0.4,0.0,0.4,0.2,0.4,0.93,0.4232,0.6,0.2713,4.0,1.9596,True,hexagonal,6/mmm,194,20.0583,9.0469,0.2925
Na8 Sb8,2,0.0,0.5,0.0,0.0,0.0,0.0,0.5,0.0,0.0,0.0,-1.0,1.12,0.56,0.35,0.175,2.0,1.0,True,monoclinic,2/m,14,30.5676,3.9317,0.5715
Br12 Na6 Y2,3,0.0,0.3,0.0,0.0,0.6,0.0,0.0,0.0,0.0,0.1,0.0,2.03,0.9623,0.65,0.3184,2.0,0.6,True,monoclinic,2/m,14,31.0139,3.4122,0.6683
Ag2 Ba2 P2,3,0.0,0.0,0.3333,0.0,0.0,0.0,0.0,0.0,0.0,0.3333,0.0,1.3,0.5617,1.15,0.4696,3.0,1.2472,True,hexagonal,6/mmm,194,26.7933,5.7053,0.5014
Cu6 F14 Na2,3,0.0,0.0909,0.0,0.0,0.6364,0.0,0.0,0.0,0.0,0.2727,0.0,3.05,1.1456,1.3,0.4777,2.0,0.8814,True,monoclinic,2/m,15,12.5273,4.1768,0.9761
B4 La2 Ni5,3,0.0,0.0,0.0,0.0,0.0,0.1818,0.3636,0.0,0.1818,0.6364,2.5455,0.94,0.3398,1.1,0.3887,6.0,2.0889,True,monoclinic,2/m,12,12.7597,7.2703,0.8257
In2 Tb4,2,0.0,0.0,0.0,0.0,0.0,0.6667,0.0,0.0,0.6667,0.0,3.0,1.78,0.8391,0.2,0.0943,3.0,1.4142,True,hexagonal,6/mmm,194,28.7181,8.3393,0.8023
Ca4 O28 V12,3,0.0,0.0,0.0909,0.6364,0.0,0.0,0.0,0.0,0.0,0.2727,0.2727,2.44,0.9606,1.2,0.4312,2.0,0.9621,True,orthorhombic,mmm,62,13.927,3.3049,0.4939
Ho16 O24,2,0.0,0.0,0.0,0.6,0.0,0.4,0.0,0.0,0.4,0.0,0.0,2.21,1.0827,1.15,0.5634,6.0,2.9394,True,cubic,23,199,14.9323,8.4039,1.0
Ba2 Cu4 O8 Tm1,4,0.0,0.0,0.1333,0.5333,0.0,0.0667,0.0,0.0,0.0667,0.2667,-0.0667,2.55,1.0075,1.55,0.57,6.0,1.8571,True,orthorhombic,mmm,65,13.7552,6.6458,0.2787
Cu2 Dy1 Ge2,3,0.0,0.0,0.0,0.0,0.0,0.2,0.4,0.0,0.2,0.4,-0.2,0.79,0.2981,0.5,0.1855,4.0,1.6,True,tetragonal,4/mmm,139,16.9451,8.5231,0.6854
As2 F14 Pb2,3,0.0,0.0,0.0,0.0,0.7778,0.0,0.1111,0.0,0.0,0.0,-0.8889,1.8,0.718,1.3,0.4333,4.0,1.3333,True,triclinic,-1,2,14.2241,5.3845,0.6217
Cl16 Ru2 S6,3,0.0,0.0,0.0,0.0,0.6667,0.0,0.0,0.0,0.0,0.0833,-0.9167,0.96,0.3321,0.3,0.0829,2.0,0.5528,True,triclinic,-1,2,28.5366,2.3319,0.7298
O48 S12 Y8,3,0.0,0.0,0.0,0.7059,0.0,0.0,0.0,0.0,0.0,0.1176,-1.4118,2.22,0.7347,1.2,0.3909,3.0,0.9772,True,orthorhombic,mmm,60,16.7699,2.7143,0.7163
La2 Ni2 Si2,3,0.0,0.0,0.0,0.0,0.0,0.3333,0.3333,0.0,0.3333,0.6667,0.3333,0.81,0.3795,0.85,0.3567,5.0,2.1602,True,tetragonal,4mm,109,20.4293,6.1147,0.5496
Cu4 F28 Ga4 Na8,4,0.0,0.1818,0.0,0.0,0.6364,0.0,0.0,0.0,0.0,0.0909,0.0,3.05,1.2757,1.3,0.5309,2.0,0.782,True,monoclinic,2/m,15,12.8993,3.6541,0.5629
Cr2 Si2 Tb1,3,0.0,0.0,0.0,0.0,0.0,0.2,0.4,0.0,0.2,0.4,0.2,1.9,0.72,0.65,0.2408,5.0,1.8547,True,tetragonal,4/mmm,139,15.9384,6.6489,0.6421
Pt2 V1,2,0.0,0.0,0.0,0.0,0.0,0.0,0.0,0.0,0.0,1.0,3.0,0.65,0.3064,0.0,0.0,2.0,0.9428,True,orthorhombic,mmm,71,14.7636,16.5379,0.568
Au5 Sr1,2,0.0,0.0,0.1667,0.0,0.0,0.0,0.0,0.0,0.0,0.8333,2.8333,1.59,0.5926,0.65,0.2422,1.0,0.3727,True,hexagonal,6/mmm,191,22.1194,13.4185,1.2246
K2 Li2 O8 S2,4,0.0,0.2857,0.0,0.5714,0.0,0.0,0.0,0.0,0.0,0.0,-1.1429,2.62,1.1094,1.6,0.571,2.0,0.7284,True,monoclinic,m,9,14.8237,2.274,0.5906
Be4 K4 O16 P4,4,0.0,0.1429,0.1429,0.5714,0.0,0.0,0.0,0.0,0.0,0.0,-1.1429,2.62,1.0154,1.6,0.5431,2.0,0.7284,True,orthorhombic,mm2,33,12.996,2.6117,0.5784
Dy4 Pt4 Si4,3,0.0,0.0,0.0,0.0,0.0,0.3333,0.3333,0.0,0.3333,0.3333,0.3333,1.06,0.4385,0.65,0.2677,5.0,2.0548,True,orthorhombic,mmm,62,18.7863,11.3632,0.5726
Sn3 Tb1,2,0.0,0.0,0.0,0.0,0.0,0.25,0.0,0.0,0.25,0.0,-2.25,1.96,0.8487,0.3,0.1299,3.0,1.299,True,cubic,m-3m,221,26.3941,8.1009,1.0
C1 Pr3 Tl1,3,0.0,0.0,0.0,0.0,0.0,0.6,0.0,0.0,0.6,0.0,1.2,1.42,0.5526,1.2,0.4654,6.0,2.3324,True,cubic,m-3m,221,40.4897,5.2422,1.0
C4 Th2,2,0.3333,0.0,0.0,0.0,0.0,0.0,0.0,0.0,0.3333,0.0,-1.3333,1.25,0.5893,1.1,0.5185,7.0,3.2998,True,monoclinic,2/m,15,15.6506,9.056,0.5942
Na8 Si46,2,0.0,0.1481,0.0,0.0,0.0,0.0,0.8519,0.0,0.0,0.0,-3.2593,0.97,0.3446,0.7,0.2487,0.0,0.0,True,cubic,m-3m,223,19.906,2.2799,1.0
Gd8 O28 Si8,3,0.0,0.0,0.0,0.6364,0.0,0.1818,0.1818,0.0,0.1818,0.0,-1.4545,2.24,0.9334,1.2,0.4601,6.0,2.26,True,monoclinic,2/m,14,12.286,5.9305,0.5348
Si4 U4,2,0.5,0.0,0.0,0.0,0.0,0.0,0.5,0.0,0.5,0.0,1.0,0.52,0.26,0.65,0.325,6.0,3.0,True,orthorhombic,mmm,62,19.5269,11.315,0.4182
Au2 Li6 S4,3,0.0,0.5,0.0,0.0,0.0,0.0,0.0,0.0,0.0,0.1667,0.3333,1.6,0.7934,0.45,0.2034,4.0,1.4142,True,orthorhombic,mmm,72,17.4353,4.475,0.8163
Fe4 Li4 O28 P8,4,0.0,0.0909,0.0,0.6364,0.0,0.0,0.0,0.0,0.0,0.0909,-1.5455,2.46,0.8445,0.85,0.3215,2.0,0.6428,True,monoclinic,m,7,12.2139,2.9259,1.4543
Cd1 Cu2 Zr1,3,0.0,0.0,0.0,0.0,0.0,0.0,0.0,0.0,0.0,1.0,2.5,0.57,0.2329,0.2,0.1,1.0,0.5,True,cubic,m-3m,225,16.4751,8.3336,1.0
P4 Pd12,2,0.0,0.0,0.0,0.0,0.0,0.0,0.0,0.0,0.0,0.75,0.75,0.01,0.0043,0.4,0.1732,2.0,0.866,True,orthorhombic,mmm,62,15.0398,9.6673,0.6968
Ba3 Hg33,2,0.0,0.0,0.0833,0.0,0.0,0.0,0.0,0.0,0.0,0.9167,1.0833,1.11,0.3068,0.65,0.1797,0.0,0.0,True,cubic,m-3m,221,29.1144,11.1399,1.0